 Entering Gaussian System, Link 0=g16
 Input=geo-000003-01.gjf
 Output=geo-000003-01.log
 Initial command:
 /home/user1/g16/l1.exe "/home/user1/Documents/gwork/Gau-14527.inp" -scrdir="/home/user1/Documents/gwork/"
 Default CPUs for threads: 0,1,2,3
 Default is to use a total of   4 processors:
                                4 via shared-memory
                                1 via Linda
 Entering Link 1 = /home/user1/g16/l1.exe PID=     14528.
  
 Copyright (c) 1988,1990,1992,1993,1995,1998,2003,2009,2016,
            Gaussian, Inc.  All Rights Reserved.
  
 This is part of the Gaussian(R) 16 program.  It is based on
 the Gaussian(R) 09 system (copyright 2009, Gaussian, Inc.),
 the Gaussian(R) 03 system (copyright 2003, Gaussian, Inc.),
 the Gaussian(R) 98 system (copyright 1998, Gaussian, Inc.),
 the Gaussian(R) 94 system (copyright 1995, Gaussian, Inc.),
 the Gaussian 92(TM) system (copyright 1992, Gaussian, Inc.),
 the Gaussian 90(TM) system (copyright 1990, Gaussian, Inc.),
 the Gaussian 88(TM) system (copyright 1988, Gaussian, Inc.),
 the Gaussian 86(TM) system (copyright 1986, Carnegie Mellon
 University), and the Gaussian 82(TM) system (copyright 1983,
 Carnegie Mellon University). Gaussian is a federally registered
 trademark of Gaussian, Inc.
  
 This software contains proprietary and confidential information,
 including trade secrets, belonging to Gaussian, Inc.
  
 This software is provided under written license and may be
 used, copied, transmitted, or stored only in accord with that
 written license.
  
 The following legend is applicable only to US Government
 contracts under FAR:
  
                    RESTRICTED RIGHTS LEGEND
  
 Use, reproduction and disclosure by the US Government is
 subject to restrictions as set forth in subparagraphs (a)
 and (c) of the Commercial Computer Software - Restricted
 Rights clause in FAR 52.227-19.
  
 Gaussian, Inc.
 340 Quinnipiac St., Bldg. 40, Wallingford CT 06492
  
  
 ---------------------------------------------------------------
 Warning -- This program may not be used in any manner that
 competes with the business of Gaussian, Inc. or will provide
 assistance to any competitor of Gaussian, Inc.  The licensee
 of this program is prohibited from giving any competitor of
 Gaussian, Inc. access to this program.  By using this program,
 the user acknowledges that Gaussian, Inc. is engaged in the
 business of creating and licensing software in the field of
 computational chemistry and represents and warrants to the
 licensee that it is not a competitor of Gaussian, Inc. and that
 it will not use this program in any manner prohibited above.
 ---------------------------------------------------------------
  

 Cite this work as:
 Gaussian 16, Revision A.03,
 M. J. Frisch, G. W. Trucks, H. B. Schlegel, G. E. Scuseria, 
 M. A. Robb, J. R. Cheeseman, G. Scalmani, V. Barone, 
 G. A. Petersson, H. Nakatsuji, X. Li, M. Caricato, A. V. Marenich, 
 J. Bloino, B. G. Janesko, R. Gomperts, B. Mennucci, H. P. Hratchian, 
 J. V. Ortiz, A. F. Izmaylov, J. L. Sonnenberg, D. Williams-Young, 
 F. Ding, F. Lipparini, F. Egidi, J. Goings, B. Peng, A. Petrone, 
 T. Henderson, D. Ranasinghe, V. G. Zakrzewski, J. Gao, N. Rega, 
 G. Zheng, W. Liang, M. Hada, M. Ehara, K. Toyota, R. Fukuda, 
 J. Hasegawa, M. Ishida, T. Nakajima, Y. Honda, O. Kitao, H. Nakai, 
 T. Vreven, K. Throssell, J. A. Montgomery, Jr., J. E. Peralta, 
 F. Ogliaro, M. J. Bearpark, J. J. Heyd, E. N. Brothers, K. N. Kudin, 
 V. N. Staroverov, T. A. Keith, R. Kobayashi, J. Normand, 
 K. Raghavachari, A. P. Rendell, J. C. Burant, S. S. Iyengar, 
 J. Tomasi, M. Cossi, J. M. Millam, M. Klene, C. Adamo, R. Cammi, 
 J. W. Ochterski, R. L. Martin, K. Morokuma, O. Farkas, 
 J. B. Foresman, and D. J. Fox, Gaussian, Inc., Wallingford CT, 2016.
 
 ******************************************
 Gaussian 16:  ES64L-G16RevA.03 25-Dec-2016
                 4-Sep-2020 
 ******************************************
 %NProc=6
 Will use up to    6 processors via shared memory.
 %Mem=6000MB
 %chk=geo-000003-01.chk
 ----------------------------------------------------------------------
 # bp86/6-31G(d) FOpt=(Tight) Freq SCF=(xqc,MaxCycle=300) Int=(Grid=Ult
 raFine)
 ----------------------------------------------------------------------
 1/7=10,18=20,19=15,26=4,38=1/1,3;
 2/9=110,12=2,14=103,17=6,18=5,40=1/2;
 3/5=1,6=6,7=1,11=2,25=1,30=1,71=1,74=404,75=-5/1,2,3;
 4//1;
 5/5=2,7=300,8=3,13=1,38=5/2,8;
 6/7=2,8=2,9=2,10=2,28=1/1;
 7//1,2,3,16;
 1/7=10,18=20,19=15,26=4/3(2);
 2/9=110/2;
 99//99;
 2/9=110/2;
 3/5=1,6=6,7=1,11=2,25=1,30=1,71=1,74=404,75=-5/1,2,3;
 4/5=5,16=3,69=1/1;
 5/5=2,7=300,8=3,13=1,38=5/2,8;
 7//1,2,3,16;
 1/7=10,18=20,19=15,26=4/3(-5);
 2/9=110/2;
 6/7=2,8=2,9=2,10=2,19=2,28=1/1;
 99/9=1/99;
 --------------------
 mg13 - coh - opt geo
 --------------------
 Symbolic Z-matrix:
 Charge =  0 Multiplicity = 1
 Mg1                   0.48562  -0.35567  -1.53858 
 Mg2                  -1.69565   1.92832   1.57564 
 Mg3                   0.24467  -0.43239   1.70393 
 Mg4                   3.80913  -1.56054  -0.17157 
 Mg5                  -2.38312  -0.59249  -2.73146 
 Mg6                  -2.77599  -0.73822   2.48741 
 Mg7                   1.03673   2.17704   0.22666 
 Mg8                   1.04181  -2.87124   0.06565 
 Mg9                   3.59963   0.87354   1.62295 
 Mg10                 -1.79329  -2.01356  -0.10528 
 Mg11                  3.61019   1.19715  -1.43005 
 Mg12                 -3.74155   0.38084  -0.18544 
 Mg13                 -1.4382    2.00722  -1.51987 
 

 GradGradGradGradGradGradGradGradGradGradGradGradGradGradGradGradGradGrad
 Berny optimization.
 Initialization pass.
                           ----------------------------
                           !    Initial Parameters    !
                           ! (Angstroms and Degrees)  !
 --------------------------                            --------------------------
 ! Name  Definition              Value          Derivative Info.                !
 --------------------------------------------------------------------------------
 ! R1    R(1,3)                  3.2524         estimate D2E/DX2                !
 ! R2    R(1,5)                  3.1159         estimate D2E/DX2                !
 ! R3    R(1,7)                  3.136          estimate D2E/DX2                !
 ! R4    R(1,8)                  3.035          estimate D2E/DX2                !
 ! R5    R(1,10)                 3.1617         estimate D2E/DX2                !
 ! R6    R(1,11)                 3.4908         estimate D2E/DX2                !
 ! R7    R(1,13)                 3.0471         estimate D2E/DX2                !
 ! R8    R(2,3)                  3.0585         estimate D2E/DX2                !
 ! R9    R(2,6)                  3.0181         estimate D2E/DX2                !
 ! R10   R(2,7)                  3.0574         estimate D2E/DX2                !
 ! R11   R(2,12)                 3.1116         estimate D2E/DX2                !
 ! R12   R(2,13)                 3.1072         estimate D2E/DX2                !
 ! R13   R(3,6)                  3.1356         estimate D2E/DX2                !
 ! R14   R(3,7)                  3.1014         estimate D2E/DX2                !
 ! R15   R(3,8)                  3.0442         estimate D2E/DX2                !
 ! R16   R(3,10)                 3.1506         estimate D2E/DX2                !
 ! R17   R(4,8)                  3.0712         estimate D2E/DX2                !
 ! R18   R(4,9)                  3.0313         estimate D2E/DX2                !
 ! R19   R(4,11)                 3.0378         estimate D2E/DX2                !
 ! R20   R(5,10)                 3.0437         estimate D2E/DX2                !
 ! R21   R(5,12)                 3.0455         estimate D2E/DX2                !
 ! R22   R(5,13)                 3.0198         estimate D2E/DX2                !
 ! R23   R(6,10)                 3.0519         estimate D2E/DX2                !
 ! R24   R(6,12)                 3.0543         estimate D2E/DX2                !
 ! R25   R(7,9)                  3.1964         estimate D2E/DX2                !
 ! R26   R(7,11)                 3.2136         estimate D2E/DX2                !
 ! R27   R(7,13)                 3.0339         estimate D2E/DX2                !
 ! R28   R(8,10)                 2.9669         estimate D2E/DX2                !
 ! R29   R(9,11)                 3.0701         estimate D2E/DX2                !
 ! R30   R(10,12)                3.0879         estimate D2E/DX2                !
 ! R31   R(12,13)                3.1195         estimate D2E/DX2                !
 ! A1    A(3,1,5)              108.1602         estimate D2E/DX2                !
 ! A2    A(3,1,11)              92.6254         estimate D2E/DX2                !
 ! A3    A(3,1,13)              88.0167         estimate D2E/DX2                !
 ! A4    A(5,1,7)              116.0197         estimate D2E/DX2                !
 ! A5    A(5,1,8)              107.9442         estimate D2E/DX2                !
 ! A6    A(5,1,11)             150.4348         estimate D2E/DX2                !
 ! A7    A(7,1,8)              109.8566         estimate D2E/DX2                !
 ! A8    A(7,1,10)             107.1564         estimate D2E/DX2                !
 ! A9    A(8,1,11)             100.8497         estimate D2E/DX2                !
 ! A10   A(8,1,13)             139.0436         estimate D2E/DX2                !
 ! A11   A(10,1,11)            149.8045         estimate D2E/DX2                !
 ! A12   A(10,1,13)             87.063          estimate D2E/DX2                !
 ! A13   A(11,1,13)            102.7079         estimate D2E/DX2                !
 ! A14   A(3,2,12)              93.2679         estimate D2E/DX2                !
 ! A15   A(3,2,13)              90.5055         estimate D2E/DX2                !
 ! A16   A(6,2,7)              121.6734         estimate D2E/DX2                !
 ! A17   A(6,2,13)             110.6746         estimate D2E/DX2                !
 ! A18   A(7,2,12)             112.2323         estimate D2E/DX2                !
 ! A19   A(1,3,2)               89.2537         estimate D2E/DX2                !
 ! A20   A(1,3,6)              108.8315         estimate D2E/DX2                !
 ! A21   A(2,3,8)              139.6332         estimate D2E/DX2                !
 ! A22   A(2,3,10)              87.3015         estimate D2E/DX2                !
 ! A23   A(6,3,7)              116.5585         estimate D2E/DX2                !
 ! A24   A(6,3,8)              107.9741         estimate D2E/DX2                !
 ! A25   A(7,3,8)              110.5387         estimate D2E/DX2                !
 ! A26   A(7,3,10)             108.2956         estimate D2E/DX2                !
 ! A27   A(8,4,9)              103.5731         estimate D2E/DX2                !
 ! A28   A(8,4,11)             111.1254         estimate D2E/DX2                !
 ! A29   A(1,5,12)              93.8031         estimate D2E/DX2                !
 ! A30   A(10,5,13)             89.7205         estimate D2E/DX2                !
 ! A31   A(2,6,10)              89.8453         estimate D2E/DX2                !
 ! A32   A(3,6,12)              92.8744         estimate D2E/DX2                !
 ! A33   A(1,7,2)               91.4672         estimate D2E/DX2                !
 ! A34   A(1,7,9)               93.2933         estimate D2E/DX2                !
 ! A35   A(2,7,9)              119.3837         estimate D2E/DX2                !
 ! A36   A(2,7,11)             156.6821         estimate D2E/DX2                !
 ! A37   A(3,7,9)               69.7323         estimate D2E/DX2                !
 ! A38   A(3,7,11)             101.1583         estimate D2E/DX2                !
 ! A39   A(3,7,13)              91.0757         estimate D2E/DX2                !
 ! A40   A(9,7,13)             151.9723         estimate D2E/DX2                !
 ! A41   A(11,7,13)            109.8412         estimate D2E/DX2                !
 ! A42   A(1,8,4)               76.7362         estimate D2E/DX2                !
 ! A43   A(3,8,4)               86.3081         estimate D2E/DX2                !
 ! A44   A(4,8,10)             137.1552         estimate D2E/DX2                !
 ! A45   A(4,9,7)               97.1383         estimate D2E/DX2                !
 ! A46   A(1,10,6)             113.4585         estimate D2E/DX2                !
 ! A47   A(1,10,12)             92.086          estimate D2E/DX2                !
 ! A48   A(3,10,5)             112.7369         estimate D2E/DX2                !
 ! A49   A(3,10,12)             91.941          estimate D2E/DX2                !
 ! A50   A(5,10,6)             118.3912         estimate D2E/DX2                !
 ! A51   A(5,10,8)             111.7068         estimate D2E/DX2                !
 ! A52   A(6,10,8)             112.3055         estimate D2E/DX2                !
 ! A53   A(8,10,12)            145.9498         estimate D2E/DX2                !
 ! A54   A(1,11,4)              70.5908         estimate D2E/DX2                !
 ! A55   A(1,11,9)              88.9086         estimate D2E/DX2                !
 ! A56   A(4,11,7)              96.6427         estimate D2E/DX2                !
 ! A57   A(2,12,5)             109.805          estimate D2E/DX2                !
 ! A58   A(2,12,10)             87.4837         estimate D2E/DX2                !
 ! A59   A(5,12,6)             118.2608         estimate D2E/DX2                !
 ! A60   A(6,12,13)            109.3868         estimate D2E/DX2                !
 ! A61   A(10,12,13)            87.1057         estimate D2E/DX2                !
 ! A62   A(1,13,2)              92.2203         estimate D2E/DX2                !
 ! A63   A(1,13,12)             93.6991         estimate D2E/DX2                !
 ! A64   A(2,13,5)             110.6046         estimate D2E/DX2                !
 ! A65   A(5,13,7)             122.3042         estimate D2E/DX2                !
 ! A66   A(7,13,12)            112.6602         estimate D2E/DX2                !
 ! D1    D(5,1,3,2)            -55.5529         estimate D2E/DX2                !
 ! D2    D(5,1,3,6)              0.4192         estimate D2E/DX2                !
 ! D3    D(11,1,3,2)           103.1003         estimate D2E/DX2                !
 ! D4    D(11,1,3,6)           159.0724         estimate D2E/DX2                !
 ! D5    D(13,1,3,2)             0.4642         estimate D2E/DX2                !
 ! D6    D(13,1,3,6)            56.4364         estimate D2E/DX2                !
 ! D7    D(3,1,5,12)            21.9046         estimate D2E/DX2                !
 ! D8    D(7,1,5,12)           -40.7375         estimate D2E/DX2                !
 ! D9    D(8,1,5,12)            83.0001         estimate D2E/DX2                !
 ! D10   D(11,1,5,12)         -110.6217         estimate D2E/DX2                !
 ! D11   D(5,1,7,2)             41.6448         estimate D2E/DX2                !
 ! D12   D(5,1,7,9)            161.1895         estimate D2E/DX2                !
 ! D13   D(8,1,7,2)            -81.0935         estimate D2E/DX2                !
 ! D14   D(8,1,7,9)             38.4512         estimate D2E/DX2                !
 ! D15   D(10,1,7,2)           -20.5515         estimate D2E/DX2                !
 ! D16   D(10,1,7,9)            98.9932         estimate D2E/DX2                !
 ! D17   D(5,1,8,4)            167.2481         estimate D2E/DX2                !
 ! D18   D(7,1,8,4)            -65.3639         estimate D2E/DX2                !
 ! D19   D(11,1,8,4)            -5.9567         estimate D2E/DX2                !
 ! D20   D(13,1,8,4)          -130.1876         estimate D2E/DX2                !
 ! D21   D(7,1,10,6)            -0.0313         estimate D2E/DX2                !
 ! D22   D(7,1,10,12)           57.6112         estimate D2E/DX2                !
 ! D23   D(11,1,10,6)           54.4644         estimate D2E/DX2                !
 ! D24   D(11,1,10,12)         112.1069         estimate D2E/DX2                !
 ! D25   D(13,1,10,6)          -56.0101         estimate D2E/DX2                !
 ! D26   D(13,1,10,12)           1.6324         estimate D2E/DX2                !
 ! D27   D(3,1,11,4)            63.9098         estimate D2E/DX2                !
 ! D28   D(3,1,11,9)             6.0089         estimate D2E/DX2                !
 ! D29   D(5,1,11,4)          -160.597          estimate D2E/DX2                !
 ! D30   D(5,1,11,9)           141.5021         estimate D2E/DX2                !
 ! D31   D(8,1,11,4)             6.2158         estimate D2E/DX2                !
 ! D32   D(8,1,11,9)           -51.6851         estimate D2E/DX2                !
 ! D33   D(10,1,11,4)           46.0222         estimate D2E/DX2                !
 ! D34   D(10,1,11,9)          -11.8787         estimate D2E/DX2                !
 ! D35   D(13,1,11,4)          152.4673         estimate D2E/DX2                !
 ! D36   D(13,1,11,9)           94.5664         estimate D2E/DX2                !
 ! D37   D(3,1,13,2)            -0.4573         estimate D2E/DX2                !
 ! D38   D(3,1,13,12)          -60.4907         estimate D2E/DX2                !
 ! D39   D(8,1,13,2)            30.9526         estimate D2E/DX2                !
 ! D40   D(8,1,13,12)          -29.0808         estimate D2E/DX2                !
 ! D41   D(10,1,13,2)           58.4153         estimate D2E/DX2                !
 ! D42   D(10,1,13,12)          -1.6182         estimate D2E/DX2                !
 ! D43   D(11,1,13,2)          -92.7025         estimate D2E/DX2                !
 ! D44   D(11,1,13,12)        -152.7359         estimate D2E/DX2                !
 ! D45   D(12,2,3,1)            59.7389         estimate D2E/DX2                !
 ! D46   D(12,2,3,8)            27.3633         estimate D2E/DX2                !
 ! D47   D(12,2,3,10)            0.5852         estimate D2E/DX2                !
 ! D48   D(13,2,3,1)            -0.455          estimate D2E/DX2                !
 ! D49   D(13,2,3,8)           -32.8307         estimate D2E/DX2                !
 ! D50   D(13,2,3,10)          -59.6088         estimate D2E/DX2                !
 ! D51   D(7,2,6,10)           -42.5276         estimate D2E/DX2                !
 ! D52   D(13,2,6,10)           22.9649         estimate D2E/DX2                !
 ! D53   D(6,2,7,1)             43.2334         estimate D2E/DX2                !
 ! D54   D(6,2,7,9)            -51.3766         estimate D2E/DX2                !
 ! D55   D(6,2,7,11)            23.3872         estimate D2E/DX2                !
 ! D56   D(12,2,7,1)           -23.9799         estimate D2E/DX2                !
 ! D57   D(12,2,7,9)          -118.5899         estimate D2E/DX2                !
 ! D58   D(12,2,7,11)          -43.8261         estimate D2E/DX2                !
 ! D59   D(3,2,12,5)           -56.8312         estimate D2E/DX2                !
 ! D60   D(3,2,12,10)           -0.597          estimate D2E/DX2                !
 ! D61   D(7,2,12,5)             3.0236         estimate D2E/DX2                !
 ! D62   D(7,2,12,10)           59.2578         estimate D2E/DX2                !
 ! D63   D(3,2,13,1)             0.486          estimate D2E/DX2                !
 ! D64   D(3,2,13,5)            61.1073         estimate D2E/DX2                !
 ! D65   D(6,2,13,1)           -59.7516         estimate D2E/DX2                !
 ! D66   D(6,2,13,5)             0.8698         estimate D2E/DX2                !
 ! D67   D(1,3,6,12)           -22.4137         estimate D2E/DX2                !
 ! D68   D(7,3,6,12)            41.7218         estimate D2E/DX2                !
 ! D69   D(8,3,6,12)           -83.344          estimate D2E/DX2                !
 ! D70   D(6,3,7,9)            158.0689         estimate D2E/DX2                !
 ! D71   D(6,3,7,11)          -153.2996         estimate D2E/DX2                !
 ! D72   D(6,3,7,13)           -42.8295         estimate D2E/DX2                !
 ! D73   D(8,3,7,9)            -78.1734         estimate D2E/DX2                !
 ! D74   D(8,3,7,11)           -29.5419         estimate D2E/DX2                !
 ! D75   D(8,3,7,13)            80.9283         estimate D2E/DX2                !
 ! D76   D(10,3,7,9)          -139.1344         estimate D2E/DX2                !
 ! D77   D(10,3,7,11)          -90.5029         estimate D2E/DX2                !
 ! D78   D(10,3,7,13)           19.9672         estimate D2E/DX2                !
 ! D79   D(2,3,8,4)            116.4658         estimate D2E/DX2                !
 ! D80   D(6,3,8,4)            178.3552         estimate D2E/DX2                !
 ! D81   D(7,3,8,4)             49.7827         estimate D2E/DX2                !
 ! D82   D(2,3,10,5)            57.0333         estimate D2E/DX2                !
 ! D83   D(2,3,10,12)           -0.589          estimate D2E/DX2                !
 ! D84   D(7,3,10,5)             0.4392         estimate D2E/DX2                !
 ! D85   D(7,3,10,12)          -57.1831         estimate D2E/DX2                !
 ! D86   D(9,4,8,1)             70.7806         estimate D2E/DX2                !
 ! D87   D(9,4,8,3)              5.93           estimate D2E/DX2                !
 ! D88   D(9,4,8,10)            48.7167         estimate D2E/DX2                !
 ! D89   D(11,4,8,1)             7.2132         estimate D2E/DX2                !
 ! D90   D(11,4,8,3)           -57.6374         estimate D2E/DX2                !
 ! D91   D(11,4,8,10)          -14.8508         estimate D2E/DX2                !
 ! D92   D(8,4,9,7)            -55.6778         estimate D2E/DX2                !
 ! D93   D(8,4,11,1)            -6.4683         estimate D2E/DX2                !
 ! D94   D(8,4,11,7)            43.4231         estimate D2E/DX2                !
 ! D95   D(13,5,10,3)          -20.6642         estimate D2E/DX2                !
 ! D96   D(13,5,10,6)           47.2177         estimate D2E/DX2                !
 ! D97   D(13,5,10,8)          -85.5893         estimate D2E/DX2                !
 ! D98   D(1,5,12,2)            19.9729         estimate D2E/DX2                !
 ! D99   D(1,5,12,6)           -44.2397         estimate D2E/DX2                !
 ! D100  D(10,5,13,2)          -24.2156         estimate D2E/DX2                !
 ! D101  D(10,5,13,7)           42.2091         estimate D2E/DX2                !
 ! D102  D(2,6,10,1)            20.8677         estimate D2E/DX2                !
 ! D103  D(2,6,10,5)           -46.7728         estimate D2E/DX2                !
 ! D104  D(2,6,10,8)            85.7717         estimate D2E/DX2                !
 ! D105  D(3,6,12,5)            44.1529         estimate D2E/DX2                !
 ! D106  D(3,6,12,13)          -19.9279         estimate D2E/DX2                !
 ! D107  D(1,7,9,4)              9.6031         estimate D2E/DX2                !
 ! D108  D(2,7,9,4)            103.1482         estimate D2E/DX2                !
 ! D109  D(3,7,9,4)             69.0431         estimate D2E/DX2                !
 ! D110  D(13,7,9,4)            19.6679         estimate D2E/DX2                !
 ! D111  D(2,7,11,4)           -39.2809         estimate D2E/DX2                !
 ! D112  D(3,7,11,4)            -7.2245         estimate D2E/DX2                !
 ! D113  D(13,7,11,4)         -102.4754         estimate D2E/DX2                !
 ! D114  D(3,7,13,5)           -42.4898         estimate D2E/DX2                !
 ! D115  D(3,7,13,12)           24.7022         estimate D2E/DX2                !
 ! D116  D(9,7,13,5)             2.9181         estimate D2E/DX2                !
 ! D117  D(9,7,13,12)           70.1101         estimate D2E/DX2                !
 ! D118  D(11,7,13,5)           59.7818         estimate D2E/DX2                !
 ! D119  D(11,7,13,12)         126.9738         estimate D2E/DX2                !
 ! D120  D(4,8,10,5)            54.9909         estimate D2E/DX2                !
 ! D121  D(4,8,10,6)           -80.7739         estimate D2E/DX2                !
 ! D122  D(4,8,10,12)          -12.3695         estimate D2E/DX2                !
 ! D123  D(1,10,12,2)          -61.4899         estimate D2E/DX2                !
 ! D124  D(1,10,12,13)          -1.5944         estimate D2E/DX2                !
 ! D125  D(3,10,12,2)            0.5789         estimate D2E/DX2                !
 ! D126  D(3,10,12,13)          60.4743         estimate D2E/DX2                !
 ! D127  D(8,10,12,2)          -30.7437         estimate D2E/DX2                !
 ! D128  D(8,10,12,13)          29.1518         estimate D2E/DX2                !
 ! D129  D(6,12,13,1)           57.9336         estimate D2E/DX2                !
 ! D130  D(6,12,13,7)           -3.2945         estimate D2E/DX2                !
 ! D131  D(10,12,13,1)           1.6568         estimate D2E/DX2                !
 ! D132  D(10,12,13,7)         -59.5713         estimate D2E/DX2                !
 --------------------------------------------------------------------------------
 Trust Radius=3.00D-01 FncErr=1.00D-07 GrdErr=1.00D-06 EigMax=2.50D+02 EigMin=1.00D-04
 Number of steps in this run=    100 maximum allowed number of steps=    100.
 GradGradGradGradGradGradGradGradGradGradGradGradGradGradGradGradGradGrad

                          Input orientation:                          
 ---------------------------------------------------------------------
 Center     Atomic      Atomic             Coordinates (Angstroms)
 Number     Number       Type             X           Y           Z
 ---------------------------------------------------------------------
      1         12           0        0.485620   -0.355673   -1.538584
      2         12           0       -1.695645    1.928318    1.575636
      3         12           0        0.244665   -0.432386    1.703928
      4         12           0        3.809134   -1.560537   -0.171570
      5         12           0       -2.383119   -0.592493   -2.731456
      6         12           0       -2.775987   -0.738218    2.487412
      7         12           0        1.036731    2.177041    0.226657
      8         12           0        1.041810   -2.871240    0.065653
      9         12           0        3.599632    0.873541    1.622954
     10         12           0       -1.793285   -2.013560   -0.105281
     11         12           0        3.610191    1.197152   -1.430045
     12         12           0       -3.741550    0.380840   -0.185437
     13         12           0       -1.438195    2.007216   -1.519868
 ---------------------------------------------------------------------
                    Distance matrix (angstroms):
                    1          2          3          4          5
     1  Mg   0.000000
     2  Mg   4.435414   0.000000
     3  Mg   3.252357   3.058461   0.000000
     4  Mg   3.790273   6.747402   4.182781   0.000000
     5  Mg   3.115877   5.037673   5.157859   6.770090   0.000000
     6  Mg   5.195485   3.018094   3.135557   7.149141   5.235663
     7  Mg   3.135991   3.057366   3.101420   4.670577   5.302464
     8  Mg   3.034963   5.727955   3.044239   3.071205   4.974600
     9  Mg   4.604711   5.399514   3.601084   3.031327   7.543438
    10  Mg   3.161701   4.286422   3.150649   5.621096   3.043703
    11  Mg   3.490844   6.141711   4.878929   3.037793   6.388761
    12  Mg   4.499158   3.111558   4.485638   7.796279   3.045476
    13  Mg   3.047074   3.107193   4.379102   6.487005   3.019820
                    6          7          8          9         10
     6  Mg   0.000000
     7  Mg   5.305334   0.000000
     8  Mg   4.999027   5.050850   0.000000
     9  Mg   6.632765   3.196439   4.794896   0.000000
    10  Mg   3.051927   5.067574   2.966917   6.356548   0.000000
    11  Mg   7.737919   3.213649   5.038403   3.070120   6.423490
    12  Mg   3.054296   5.121341   5.789612   7.576674   3.087930
    13  Mg   5.038391   3.033883   5.697687   6.045019   4.277123
                   11         12         13
    11  Mg   0.000000
    12  Mg   7.500901   0.000000
    13  Mg   5.113753   3.119495   0.000000
 Stoichiometry    Mg13
 Framework group  C1[X(Mg13)]
 Deg. of freedom    33
 Full point group                 C1      NOp   1
 Largest Abelian subgroup         C1      NOp   1
 Largest concise Abelian subgroup C1      NOp   1
                         Standard orientation:                         
 ---------------------------------------------------------------------
 Center     Atomic      Atomic             Coordinates (Angstroms)
 Number     Number       Type             X           Y           Z
 ---------------------------------------------------------------------
      1         12           0        0.485620    0.355673    1.538584
      2         12           0       -1.695645   -1.928318   -1.575636
      3         12           0        0.244665    0.432386   -1.703928
      4         12           0        3.809134    1.560537    0.171570
      5         12           0       -2.383119    0.592493    2.731456
      6         12           0       -2.775987    0.738218   -2.487412
      7         12           0        1.036731   -2.177041   -0.226657
      8         12           0        1.041810    2.871240   -0.065653
      9         12           0        3.599632   -0.873541   -1.622954
     10         12           0       -1.793285    2.013560    0.105281
     11         12           0        3.610191   -1.197152    1.430045
     12         12           0       -3.741550   -0.380840    0.185437
     13         12           0       -1.438195   -2.007216    1.519868
 ---------------------------------------------------------------------
 Rotational constants (GHZ):           0.3553685           0.1968825           0.1928278
 Standard basis: 6-31G(d) (6D, 7F)
 There are   247 symmetry adapted cartesian basis functions of A   symmetry.
 There are   247 symmetry adapted basis functions of A   symmetry.
   247 basis functions,   676 primitive gaussians,   247 cartesian basis functions
    78 alpha electrons       78 beta electrons
       nuclear repulsion energy      1434.1507031745 Hartrees.
 NAtoms=   13 NActive=   13 NUniq=   13 SFac= 1.00D+00 NAtFMM=   60 NAOKFM=F Big=F
 Integral buffers will be    131072 words long.
 Raffenetti 2 integral format.
 Two-electron integral symmetry is turned on.
 One-electron integrals computed using PRISM.
 NBasis=   247 RedAO= T EigKep=  6.61D-04  NBF=   247
 NBsUse=   247 1.00D-06 EigRej= -1.00D+00 NBFU=   247
 ExpMin= 4.21D-02 ExpMax= 1.17D+04 ExpMxC= 1.76D+03 IAcc=3 IRadAn=         5 AccDes= 0.00D+00
 Harris functional with IExCor=  404 and IRadAn=       5 diagonalized for initial guess.
 HarFok:  IExCor=  404 AccDes= 0.00D+00 IRadAn=         5 IDoV= 1 UseB2=F ITyADJ=14
 ICtDFT=  3500011 ScaDFX=  1.000000  1.000000  1.000000  1.000000
 FoFCou: FMM=F IPFlag=           0 FMFlag=      100000 FMFlg1=           0
         NFxFlg=           0 DoJE=T BraDBF=F KetDBF=T FulRan=T
         wScrn=  0.000000 ICntrl=       500 IOpCl=  0 I1Cent=   200000004 NGrid=           0
         NMat0=    1 NMatS0=      1 NMatT0=    0 NMatD0=    1 NMtDS0=    0 NMtDT0=    0
 Petite list used in FoFCou.
 Keep J ints in memory in canonical form, NReq=476680238.
 Requested convergence on RMS density matrix=1.00D-08 within 128 cycles.
 Requested convergence on MAX density matrix=1.00D-06.
 Requested convergence on             energy=1.00D-06.
 No special actions if energy rises.
 Rare condition: small coef for last iteration:  0.000D+00
 EnCoef did     6 forward-backward iterations
 EnCoef did     7 forward-backward iterations
 SCF Done:  E(RB-P86) =  -2601.16043443     A.U. after   18 cycles
            NFock= 18  Conv=0.44D-08     -V/T= 2.0048
 QCSCF skips out because SCF is already converged.

 **********************************************************************

            Population analysis using the SCF density.

 **********************************************************************

 Orbital symmetries:
       Occupied  (A) (A) (A) (A) (A) (A) (A) (A) (A) (A) (A) (A)
                 (A) (A) (A) (A) (A) (A) (A) (A) (A) (A) (A) (A)
                 (A) (A) (A) (A) (A) (A) (A) (A) (A) (A) (A) (A)
                 (A) (A) (A) (A) (A) (A) (A) (A) (A) (A) (A) (A)
                 (A) (A) (A) (A) (A) (A) (A) (A) (A) (A) (A) (A)
                 (A) (A) (A) (A) (A) (A) (A) (A) (A) (A) (A) (A)
                 (A) (A) (A) (A) (A) (A)
       Virtual   (A) (A) (A) (A) (A) (A) (A) (A) (A) (A) (A) (A)
                 (A) (A) (A) (A) (A) (A) (A) (A) (A) (A) (A) (A)
                 (A) (A) (A) (A) (A) (A) (A) (A) (A) (A) (A) (A)
                 (A) (A) (A) (A) (A) (A) (A) (A) (A) (A) (A) (A)
                 (A) (A) (A) (A) (A) (A) (A) (A) (A) (A) (A) (A)
                 (A) (A) (A) (A) (A) (A) (A) (A) (A) (A) (A) (A)
                 (A) (A) (A) (A) (A) (A) (A) (A) (A) (A) (A) (A)
                 (A) (A) (A) (A) (A) (A) (A) (A) (A) (A) (A) (A)
                 (A) (A) (A) (A) (A) (A) (A) (A) (A) (A) (A) (A)
                 (A) (A) (A) (A) (A) (A) (A) (A) (A) (A) (A) (A)
                 (A) (A) (A) (A) (A) (A) (A) (A) (A) (A) (A) (A)
                 (A) (A) (A) (A) (A) (A) (A) (A) (A) (A) (A) (A)
                 (A) (A) (A) (A) (A) (A) (A) (A) (A) (A) (A) (A)
                 (A) (A) (A) (A) (A) (A) (A) (A) (A) (A) (A) (A)
                 (A)
 The electronic state is 1-A.
 Alpha  occ. eigenvalues --  -46.26975 -46.26872 -46.26830 -46.26734 -46.26575
 Alpha  occ. eigenvalues --  -46.26567 -46.26491 -46.26432 -46.26425 -46.26302
 Alpha  occ. eigenvalues --  -46.26234 -46.26204 -46.26108  -2.93542  -2.93406
 Alpha  occ. eigenvalues --   -2.93360  -2.93290  -2.93123  -2.93118  -2.92970
 Alpha  occ. eigenvalues --   -2.92941  -2.92911  -2.92728  -2.92661  -2.92589
 Alpha  occ. eigenvalues --   -2.92580  -1.72795  -1.72746  -1.72657  -1.72626
 Alpha  occ. eigenvalues --   -1.72610  -1.72593  -1.72555  -1.72547  -1.72529
 Alpha  occ. eigenvalues --   -1.72489  -1.72474  -1.72402  -1.72392  -1.72375
 Alpha  occ. eigenvalues --   -1.72277  -1.72262  -1.72260  -1.72253  -1.72246
 Alpha  occ. eigenvalues --   -1.72235  -1.72209  -1.72121  -1.72085  -1.72062
 Alpha  occ. eigenvalues --   -1.72061  -1.72046  -1.72007  -1.71989  -1.71921
 Alpha  occ. eigenvalues --   -1.71901  -1.71869  -1.71848  -1.71840  -1.71838
 Alpha  occ. eigenvalues --   -1.71786  -1.71756  -1.71741  -1.71719  -1.71678
 Alpha  occ. eigenvalues --   -0.31437  -0.27476  -0.25135  -0.24525  -0.22649
 Alpha  occ. eigenvalues --   -0.20036  -0.19008  -0.16935  -0.15751  -0.15649
 Alpha  occ. eigenvalues --   -0.14996  -0.14533  -0.14395
 Alpha virt. eigenvalues --   -0.11252  -0.10153  -0.09980  -0.08969  -0.08897
 Alpha virt. eigenvalues --   -0.08424  -0.08185  -0.08036  -0.07441  -0.07333
 Alpha virt. eigenvalues --   -0.06449  -0.05621  -0.05354  -0.03102  -0.02556
 Alpha virt. eigenvalues --   -0.02316  -0.01318  -0.01022  -0.00234   0.00438
 Alpha virt. eigenvalues --    0.00608   0.01064   0.01130   0.01387   0.01550
 Alpha virt. eigenvalues --    0.01785   0.02523   0.02663   0.03203   0.03535
 Alpha virt. eigenvalues --    0.03753   0.04861   0.05213   0.05536   0.06216
 Alpha virt. eigenvalues --    0.06675   0.07038   0.07429   0.07807   0.07951
 Alpha virt. eigenvalues --    0.08236   0.08556   0.08842   0.09862   0.09970
 Alpha virt. eigenvalues --    0.10500   0.10851   0.11216   0.11586   0.11999
 Alpha virt. eigenvalues --    0.12335   0.12737   0.13433   0.13696   0.14340
 Alpha virt. eigenvalues --    0.14482   0.15156   0.15575   0.15797   0.16097
 Alpha virt. eigenvalues --    0.16713   0.17698   0.17762   0.18424   0.18595
 Alpha virt. eigenvalues --    0.19116   0.19246   0.19590   0.19837   0.19879
 Alpha virt. eigenvalues --    0.20154   0.20915   0.21173   0.21344   0.21923
 Alpha virt. eigenvalues --    0.22729   0.23090   0.23368   0.23613   0.24214
 Alpha virt. eigenvalues --    0.24572   0.25113   0.25335   0.25414   0.26152
 Alpha virt. eigenvalues --    0.26569   0.26946   0.27633   0.27935   0.28745
 Alpha virt. eigenvalues --    0.29682   0.29865   0.30244   0.30483   0.30789
 Alpha virt. eigenvalues --    0.30917   0.31411   0.32289   0.32493   0.33627
 Alpha virt. eigenvalues --    0.34394   0.34603   0.34899   0.35201   0.36473
 Alpha virt. eigenvalues --    0.37017   0.37466   0.38007   0.38359   0.38739
 Alpha virt. eigenvalues --    0.38883   0.39094   0.40424   0.41256   0.41545
 Alpha virt. eigenvalues --    0.42299   0.42514   0.43117   0.43407   0.43929
 Alpha virt. eigenvalues --    0.44310   0.45253   0.46086   0.46538   0.47212
 Alpha virt. eigenvalues --    0.47935   0.48762   0.50070   0.50569   0.50643
 Alpha virt. eigenvalues --    0.51025   0.51260   0.51767   0.52234   0.52956
 Alpha virt. eigenvalues --    0.53967   0.54141   0.54652   0.55293   0.55741
 Alpha virt. eigenvalues --    0.56579   0.56869   0.57491   0.58146   0.58555
 Alpha virt. eigenvalues --    0.59432   0.59872   0.60512   0.61860   0.63869
 Alpha virt. eigenvalues --    0.64024   0.64100   0.64517   0.64948   0.67413
 Alpha virt. eigenvalues --    0.74044   0.94612   0.96069   0.97005   0.97232
 Alpha virt. eigenvalues --    1.00906   1.01534   1.03451   1.04577   1.06524
 Alpha virt. eigenvalues --    1.07834   1.09687   1.11485   1.20572
          Condensed to atoms (all electrons):
               1          2          3          4          5          6
     1  Mg  11.833768  -0.021949  -0.031099  -0.019337   0.072475  -0.010533
     2  Mg  -0.021949  11.753024   0.036621   0.000716  -0.015498   0.082622
     3  Mg  -0.031099   0.036621  11.866704  -0.019644  -0.012621   0.062877
     4  Mg  -0.019337   0.000716  -0.019644  11.817190  -0.001849   0.000541
     5  Mg   0.072475  -0.015498  -0.012621  -0.001849  11.872557  -0.013234
     6  Mg  -0.010533   0.082622   0.062877   0.000541  -0.013234  11.879513
     7  Mg  -0.029139   0.128474  -0.017354  -0.034638  -0.017310  -0.014067
     8  Mg   0.012771  -0.010698   0.050302   0.126391   0.008678   0.004021
     9  Mg  -0.020807  -0.017730  -0.004075   0.076896   0.000385  -0.001329
    10  Mg  -0.006555  -0.019911  -0.030691  -0.021329   0.072585   0.074656
    11  Mg  -0.006475  -0.003844  -0.012137   0.092213  -0.001815   0.000102
    12  Mg  -0.021677   0.058492  -0.014837   0.000811   0.101702   0.083678
    13  Mg   0.045172   0.017358  -0.026185  -0.001041   0.086198  -0.013482
               7          8          9         10         11         12
     1  Mg  -0.029139   0.012771  -0.020807  -0.006555  -0.006475  -0.021677
     2  Mg   0.128474  -0.010698  -0.017730  -0.019911  -0.003844   0.058492
     3  Mg  -0.017354   0.050302  -0.004075  -0.030691  -0.012137  -0.014837
     4  Mg  -0.034638   0.126391   0.076896  -0.021329   0.092213   0.000811
     5  Mg  -0.017310   0.008678   0.000385   0.072585  -0.001815   0.101702
     6  Mg  -0.014067   0.004021  -0.001329   0.074656   0.000102   0.083678
     7  Mg  11.762950   0.001687   0.065172   0.003784   0.065499  -0.029275
     8  Mg   0.001687  11.763054  -0.006285   0.150227  -0.013204  -0.012962
     9  Mg   0.065172  -0.006285  11.987170  -0.003043  -0.024692   0.001403
    10  Mg   0.003784   0.150227  -0.003043  11.707633  -0.004951   0.034315
    11  Mg   0.065499  -0.013204  -0.024692  -0.004951  11.991539   0.001396
    12  Mg  -0.029275  -0.012962   0.001403   0.034315   0.001396  11.736315
    13  Mg   0.114574  -0.010009  -0.003190  -0.023125  -0.017795   0.042807
              13
     1  Mg   0.045172
     2  Mg   0.017358
     3  Mg  -0.026185
     4  Mg  -0.001041
     5  Mg   0.086198
     6  Mg  -0.013482
     7  Mg   0.114574
     8  Mg  -0.010009
     9  Mg  -0.003190
    10  Mg  -0.023125
    11  Mg  -0.017795
    12  Mg   0.042807
    13  Mg  11.756225
 Mulliken charges:
               1
     1  Mg   0.203385
     2  Mg   0.012322
     3  Mg   0.152140
     4  Mg  -0.016919
     5  Mg  -0.152252
     6  Mg  -0.135365
     7  Mg  -0.000357
     8  Mg  -0.063975
     9  Mg  -0.049875
    10  Mg   0.066407
    11  Mg  -0.065836
    12  Mg   0.017832
    13  Mg   0.032493
 Sum of Mulliken charges =  -0.00000
 Mulliken charges with hydrogens summed into heavy atoms:
               1
     1  Mg   0.203385
     2  Mg   0.012322
     3  Mg   0.152140
     4  Mg  -0.016919
     5  Mg  -0.152252
     6  Mg  -0.135365
     7  Mg  -0.000357
     8  Mg  -0.063975
     9  Mg  -0.049875
    10  Mg   0.066407
    11  Mg  -0.065836
    12  Mg   0.017832
    13  Mg   0.032493
 Electronic spatial extent (au):  <R**2>=           6239.4614
 Charge=              0.0000 electrons
 Dipole moment (field-independent basis, Debye):
    X=              0.1079    Y=             -0.0228    Z=              0.0295  Tot=              0.1142
 Quadrupole moment (field-independent basis, Debye-Ang):
   XX=           -151.9153   YY=           -147.9164   ZZ=           -150.3129
   XY=              1.0822   XZ=              0.1145   YZ=             -0.1650
 Traceless Quadrupole moment (field-independent basis, Debye-Ang):
   XX=             -1.8671   YY=              2.1318   ZZ=             -0.2647
   XY=              1.0822   XZ=              0.1145   YZ=             -0.1650
 Octapole moment (field-independent basis, Debye-Ang**2):
  XXX=            -23.5521  YYY=              3.9043  ZZZ=              0.7845  XYY=              2.9118
  XXY=             -1.6593  XXZ=              0.2292  XZZ=             -3.9394  YZZ=             -1.2346
  YYZ=              0.5460  XYZ=              0.8998
 Hexadecapole moment (field-independent basis, Debye-Ang**3):
 XXXX=          -6110.7589 YYYY=          -2525.9803 ZZZZ=          -2429.0950 XXXY=             18.4640
 XXXZ=             14.3772 YYYX=             45.8015 YYYZ=             -1.3811 ZZZX=             -9.9660
 ZZZY=              2.5781 XXYY=          -1422.5778 XXZZ=          -1379.0745 YYZZ=           -850.2000
 XXYZ=             -4.4133 YYXZ=              5.5319 ZZXY=            -37.4026
 N-N= 1.434150703174D+03 E-N=-9.088026963346D+03  KE= 2.588631844297D+03
 Calling FoFJK, ICntrl=      2527 FMM=F ISym2X=0 I1Cent= 0 IOpClX= 0 NMat=1 NMatS=1 NMatT=0.
 ***** Axes restored to original set *****
 -------------------------------------------------------------------
 Center     Atomic                   Forces (Hartrees/Bohr)
 Number     Number              X              Y              Z
 -------------------------------------------------------------------
      1       12           0.000105293    0.000014020    0.000079142
      2       12           0.000116331    0.000066899   -0.000017680
      3       12          -0.000022431    0.000058262    0.000055167
      4       12           0.000181947   -0.000039846   -0.000024852
      5       12          -0.000036134   -0.000008516   -0.000032962
      6       12          -0.000043648   -0.000001899    0.000068346
      7       12          -0.000131376   -0.000017077   -0.000097218
      8       12          -0.000076729   -0.000087213    0.000013709
      9       12           0.000079350   -0.000034934   -0.000025863
     10       12          -0.000061234   -0.000037735   -0.000097847
     11       12          -0.000097235    0.000061456    0.000093754
     12       12          -0.000003836   -0.000076499    0.000016070
     13       12          -0.000010298    0.000103080   -0.000029765
 -------------------------------------------------------------------
 Cartesian Forces:  Max     0.000181947 RMS     0.000069898

 GradGradGradGradGradGradGradGradGradGradGradGradGradGradGradGradGradGrad
 Berny optimization.
 FormGI is forming the generalized inverse of G from B-inverse, IUseBI=4.
 Internal  Forces:  Max     0.000136969 RMS     0.000018389
 Search for a local minimum.
 Step number   1 out of a maximum of  100
 All quantities printed in internal units (Hartrees-Bohrs-Radians)
 Mixed Optimization -- En-DIIS/RFO-DIIS
 Second derivative matrix not updated -- first step.
 ITU=  0
     Eigenvalues ---    0.01294   0.01597   0.01770   0.01921   0.02302
     Eigenvalues ---    0.02593   0.02626   0.02781   0.02920   0.03041
     Eigenvalues ---    0.03104   0.03221   0.03343   0.03452   0.03472
     Eigenvalues ---    0.03705   0.03765   0.03799   0.03915   0.04121
     Eigenvalues ---    0.04453   0.04514   0.04723   0.04797   0.05529
     Eigenvalues ---    0.06199   0.07383   0.07518   0.07873   0.08758
     Eigenvalues ---    0.10258   0.11316   0.13754
 RFO step:  Lambda=-1.97453040D-06 EMin= 1.29393957D-02
 Linear search not attempted -- first point.
 Iteration  1 RMS(Cart)=  0.00038261 RMS(Int)=  0.00000025
 Iteration  2 RMS(Cart)=  0.00000013 RMS(Int)=  0.00000013
 Variable       Old X    -DE/DX   Delta X   Delta X   Delta X     New X
                                 (Linear)    (Quad)   (Total)
    R1        6.14606  -0.00001   0.00000  -0.00002  -0.00002   6.14604
    R2        5.88815   0.00003   0.00000   0.00107   0.00107   5.88922
    R3        5.92616  -0.00003   0.00000  -0.00075  -0.00075   5.92541
    R4        5.73525   0.00002   0.00000   0.00080   0.00080   5.73605
    R5        5.97475   0.00001   0.00000   0.00050   0.00050   5.97525
    R6        6.59674  -0.00003   0.00000   0.00000   0.00000   6.59674
    R7        5.75814   0.00004   0.00000   0.00071   0.00071   5.75885
    R8        5.77965  -0.00001   0.00000  -0.00041  -0.00041   5.77925
    R9        5.70337   0.00004   0.00000   0.00100   0.00100   5.70437
   R10        5.77758  -0.00004   0.00000  -0.00118  -0.00118   5.77640
   R11        5.87999   0.00003   0.00000   0.00129   0.00129   5.88128
   R12        5.87174  -0.00000   0.00000  -0.00003  -0.00003   5.87172
   R13        5.92534   0.00001   0.00000   0.00031   0.00031   5.92565
   R14        5.86083  -0.00000   0.00000   0.00006   0.00006   5.86090
   R15        5.75278   0.00005   0.00000   0.00125   0.00125   5.75403
   R16        5.95386   0.00003   0.00000   0.00105   0.00105   5.95491
   R17        5.80374   0.00014   0.00000   0.00293   0.00293   5.80667
   R18        5.72838   0.00001   0.00000   0.00009   0.00009   5.72847
   R19        5.74060   0.00006   0.00000   0.00134   0.00134   5.74194
   R20        5.75177   0.00001   0.00000   0.00003   0.00003   5.75179
   R21        5.75512  -0.00001   0.00000   0.00022   0.00022   5.75533
   R22        5.70663   0.00003   0.00000   0.00052   0.00052   5.70715
   R23        5.76731   0.00005   0.00000   0.00120   0.00120   5.76850
   R24        5.77178   0.00000   0.00000  -0.00005  -0.00005   5.77174
   R25        6.04039   0.00009   0.00000   0.00337   0.00337   6.04376
   R26        6.07292  -0.00005   0.00000  -0.00133  -0.00133   6.07158
   R27        5.73321  -0.00001   0.00000  -0.00013  -0.00013   5.73308
   R28        5.60666   0.00003   0.00000   0.00071   0.00071   5.60737
   R29        5.80169  -0.00005   0.00000  -0.00157  -0.00157   5.80012
   R30        5.83534  -0.00001   0.00000  -0.00045  -0.00045   5.83489
   R31        5.89499   0.00002   0.00000   0.00080   0.00080   5.89579
    A1        1.88775   0.00000   0.00000  -0.00001  -0.00001   1.88774
    A2        1.61662  -0.00000   0.00000  -0.00004  -0.00004   1.61658
    A3        1.53618   0.00000   0.00000   0.00005   0.00005   1.53623
    A4        2.02493  -0.00000   0.00000  -0.00008  -0.00008   2.02485
    A5        1.88398   0.00000   0.00000  -0.00014  -0.00014   1.88384
    A6        2.62558  -0.00000   0.00000  -0.00014  -0.00014   2.62544
    A7        1.91736   0.00001   0.00000   0.00031   0.00031   1.91767
    A8        1.87023   0.00001   0.00000   0.00015   0.00015   1.87039
    A9        1.76016   0.00000   0.00000   0.00031   0.00031   1.76047
   A10        2.42677   0.00001   0.00000   0.00009   0.00009   2.42686
   A11        2.61458   0.00000   0.00000   0.00019   0.00019   2.61477
   A12        1.51954   0.00001   0.00000  -0.00002  -0.00002   1.51951
   A13        1.79259  -0.00001   0.00000  -0.00020  -0.00020   1.79239
   A14        1.62783  -0.00001   0.00000  -0.00015  -0.00015   1.62768
   A15        1.57962   0.00001   0.00000   0.00024   0.00024   1.57986
   A16        2.12360   0.00000   0.00000   0.00015   0.00015   2.12375
   A17        1.93164   0.00001   0.00000   0.00001   0.00001   1.93164
   A18        1.95882  -0.00000   0.00000   0.00001   0.00001   1.95883
   A19        1.55777  -0.00000   0.00000  -0.00005  -0.00005   1.55772
   A20        1.89947   0.00000   0.00000   0.00011   0.00011   1.89958
   A21        2.43706   0.00000   0.00000   0.00004   0.00004   2.43710
   A22        1.52370   0.00001   0.00000   0.00014   0.00014   1.52384
   A23        2.03433  -0.00000   0.00000  -0.00002  -0.00002   2.03431
   A24        1.88450   0.00000   0.00000  -0.00004  -0.00004   1.88447
   A25        1.92926  -0.00000   0.00000  -0.00001  -0.00001   1.92926
   A26        1.89011  -0.00000   0.00000  -0.00016  -0.00016   1.88995
   A27        1.80769  -0.00003   0.00000  -0.00038  -0.00038   1.80731
   A28        1.93950  -0.00005   0.00000  -0.00053  -0.00053   1.93897
   A29        1.63717  -0.00001   0.00000  -0.00013  -0.00013   1.63704
   A30        1.56592   0.00001   0.00000   0.00008   0.00008   1.56600
   A31        1.56810  -0.00000   0.00000  -0.00012  -0.00012   1.56797
   A32        1.62096  -0.00001   0.00000  -0.00004  -0.00004   1.62093
   A33        1.59640   0.00001   0.00000   0.00022   0.00022   1.59662
   A34        1.62828  -0.00001   0.00000  -0.00033  -0.00033   1.62795
   A35        2.08364   0.00000   0.00000   0.00024   0.00024   2.08388
   A36        2.73462   0.00001   0.00000   0.00041   0.00041   2.73503
   A37        1.21706  -0.00000   0.00000   0.00009   0.00009   1.21715
   A38        1.76555  -0.00000   0.00000   0.00022   0.00022   1.76576
   A39        1.58957   0.00001   0.00000   0.00018   0.00018   1.58975
   A40        2.65242   0.00001   0.00000  -0.00004  -0.00004   2.65238
   A41        1.91709   0.00001   0.00000   0.00029   0.00029   1.91738
   A42        1.33930   0.00002   0.00000  -0.00013  -0.00013   1.33917
   A43        1.50636   0.00001   0.00000   0.00027   0.00027   1.50663
   A44        2.39381   0.00002   0.00000   0.00001   0.00001   2.39382
   A45        1.69538   0.00002   0.00000   0.00005   0.00005   1.69543
   A46        1.98022  -0.00001   0.00000  -0.00024  -0.00024   1.97998
   A47        1.60720  -0.00000   0.00000   0.00009   0.00009   1.60730
   A48        1.96763  -0.00000   0.00000  -0.00003  -0.00003   1.96760
   A49        1.60467  -0.00001   0.00000  -0.00010  -0.00010   1.60457
   A50        2.06632  -0.00000   0.00000  -0.00002  -0.00002   2.06630
   A51        1.94965   0.00000   0.00000   0.00013   0.00013   1.94978
   A52        1.96010  -0.00000   0.00000  -0.00014  -0.00014   1.95996
   A53        2.54730  -0.00000   0.00000   0.00010   0.00010   2.54741
   A54        1.23204   0.00003   0.00000   0.00021   0.00021   1.23225
   A55        1.55175   0.00002   0.00000   0.00037   0.00037   1.55212
   A56        1.68673   0.00004   0.00000   0.00073   0.00073   1.68746
   A57        1.91646  -0.00000   0.00000  -0.00016  -0.00016   1.91629
   A58        1.52688   0.00001   0.00000   0.00011   0.00011   1.52699
   A59        2.06404   0.00001   0.00000   0.00029   0.00029   2.06433
   A60        1.90916   0.00001   0.00000   0.00006   0.00006   1.90922
   A61        1.52028   0.00001   0.00000   0.00011   0.00011   1.52039
   A62        1.60955  -0.00001   0.00000  -0.00024  -0.00024   1.60930
   A63        1.63536  -0.00002   0.00000  -0.00017  -0.00017   1.63519
   A64        1.93041  -0.00000   0.00000   0.00009   0.00009   1.93050
   A65        2.13461  -0.00001   0.00000  -0.00012  -0.00012   2.13449
   A66        1.96629  -0.00001   0.00000  -0.00014  -0.00014   1.96615
    D1       -0.96958  -0.00000   0.00000  -0.00020  -0.00020  -0.96978
    D2        0.00732   0.00000   0.00000  -0.00003  -0.00003   0.00729
    D3        1.79944  -0.00001   0.00000  -0.00045  -0.00045   1.79899
    D4        2.77634  -0.00000   0.00000  -0.00028  -0.00028   2.77606
    D5        0.00810  -0.00000   0.00000  -0.00025  -0.00025   0.00785
    D6        0.98500   0.00000   0.00000  -0.00008  -0.00008   0.98492
    D7        0.38231  -0.00001   0.00000  -0.00016  -0.00016   0.38214
    D8       -0.71100  -0.00001   0.00000  -0.00024  -0.00024  -0.71124
    D9        1.44862   0.00000   0.00000  -0.00000  -0.00000   1.44862
   D10       -1.93071   0.00000   0.00000   0.00027   0.00027  -1.93045
   D11        0.72684   0.00001   0.00000   0.00015   0.00015   0.72699
   D12        2.81329   0.00001   0.00000   0.00039   0.00039   2.81368
   D13       -1.41535  -0.00000   0.00000   0.00015   0.00015  -1.41520
   D14        0.67110   0.00000   0.00000   0.00039   0.00039   0.67149
   D15       -0.35869   0.00001   0.00000   0.00025   0.00025  -0.35844
   D16        1.72776   0.00001   0.00000   0.00049   0.00049   1.72825
   D17        2.91903  -0.00001   0.00000  -0.00053  -0.00053   2.91850
   D18       -1.14081  -0.00001   0.00000  -0.00052  -0.00052  -1.14134
   D19       -0.10396  -0.00001   0.00000  -0.00063  -0.00063  -0.10459
   D20       -2.27220  -0.00001   0.00000  -0.00082  -0.00082  -2.27303
   D21       -0.00055  -0.00001   0.00000  -0.00032  -0.00032  -0.00086
   D22        1.00550  -0.00001   0.00000  -0.00030  -0.00030   1.00520
   D23        0.95058  -0.00000   0.00000  -0.00060  -0.00060   0.94999
   D24        1.95663  -0.00001   0.00000  -0.00058  -0.00058   1.95605
   D25       -0.97756  -0.00001   0.00000  -0.00025  -0.00025  -0.97781
   D26        0.02849  -0.00001   0.00000  -0.00023  -0.00023   0.02826
   D27        1.11544   0.00002   0.00000   0.00083   0.00083   1.11626
   D28        0.10487   0.00002   0.00000   0.00088   0.00088   0.10576
   D29       -2.80295   0.00001   0.00000   0.00044   0.00044  -2.80251
   D30        2.46968   0.00001   0.00000   0.00050   0.00050   2.47018
   D31        0.10849   0.00001   0.00000   0.00067   0.00067   0.10916
   D32       -0.90208   0.00001   0.00000   0.00073   0.00073  -0.90134
   D33        0.80324   0.00002   0.00000   0.00115   0.00115   0.80439
   D34       -0.20732   0.00002   0.00000   0.00121   0.00121  -0.20612
   D35        2.66106   0.00002   0.00000   0.00086   0.00086   2.66192
   D36        1.65049   0.00002   0.00000   0.00092   0.00092   1.65142
   D37       -0.00798   0.00000   0.00000   0.00025   0.00025  -0.00773
   D38       -1.05576   0.00000   0.00000   0.00008   0.00008  -1.05568
   D39        0.54023   0.00001   0.00000   0.00063   0.00063   0.54085
   D40       -0.50756   0.00001   0.00000   0.00046   0.00046  -0.50709
   D41        1.01954   0.00001   0.00000   0.00040   0.00040   1.01994
   D42       -0.02824   0.00001   0.00000   0.00024   0.00024  -0.02800
   D43       -1.61796   0.00001   0.00000   0.00027   0.00027  -1.61769
   D44       -2.66574   0.00000   0.00000   0.00011   0.00011  -2.66564
   D45        1.04264   0.00001   0.00000   0.00030   0.00030   1.04294
   D46        0.47758   0.00002   0.00000   0.00035   0.00035   0.47792
   D47        0.01021   0.00001   0.00000   0.00029   0.00029   0.01050
   D48       -0.00794   0.00000   0.00000   0.00024   0.00024  -0.00770
   D49       -0.57300   0.00001   0.00000   0.00029   0.00029  -0.57271
   D50       -1.04037   0.00000   0.00000   0.00024   0.00024  -1.04013
   D51       -0.74225   0.00000   0.00000   0.00009   0.00009  -0.74216
   D52        0.40081   0.00001   0.00000   0.00021   0.00021   0.40103
   D53        0.75456  -0.00000   0.00000  -0.00021  -0.00021   0.75436
   D54       -0.89669   0.00000   0.00000   0.00003   0.00003  -0.89666
   D55        0.40818  -0.00002   0.00000  -0.00065  -0.00065   0.40753
   D56       -0.41853   0.00000   0.00000   0.00005   0.00005  -0.41848
   D57       -2.06978   0.00001   0.00000   0.00028   0.00028  -2.06950
   D58       -0.76491  -0.00001   0.00000  -0.00040  -0.00040  -0.76531
   D59       -0.99189  -0.00002   0.00000  -0.00043  -0.00043  -0.99232
   D60       -0.01042  -0.00001   0.00000  -0.00030  -0.00030  -0.01072
   D61        0.05277  -0.00001   0.00000  -0.00031  -0.00031   0.05247
   D62        1.03424  -0.00001   0.00000  -0.00017  -0.00017   1.03407
   D63        0.00848  -0.00000   0.00000  -0.00026  -0.00026   0.00822
   D64        1.06652  -0.00001   0.00000  -0.00028  -0.00028   1.06624
   D65       -1.04286  -0.00001   0.00000  -0.00037  -0.00037  -1.04323
   D66        0.01518  -0.00001   0.00000  -0.00039  -0.00039   0.01479
   D67       -0.39119   0.00001   0.00000   0.00018   0.00018  -0.39101
   D68        0.72818   0.00000   0.00000   0.00005   0.00005   0.72824
   D69       -1.45463   0.00000   0.00000   0.00011   0.00011  -1.45452
   D70        2.75882   0.00001   0.00000   0.00041   0.00041   2.75923
   D71       -2.67558  -0.00001   0.00000  -0.00026  -0.00026  -2.67584
   D72       -0.74752   0.00000   0.00000   0.00009   0.00009  -0.74742
   D73       -1.36438   0.00001   0.00000   0.00034   0.00034  -1.36405
   D74       -0.51560  -0.00001   0.00000  -0.00033  -0.00033  -0.51593
   D75        1.41246   0.00001   0.00000   0.00002   0.00002   1.41249
   D76       -2.42835   0.00001   0.00000   0.00046   0.00046  -2.42790
   D77       -1.57957  -0.00000   0.00000  -0.00021  -0.00021  -1.57978
   D78        0.34849   0.00001   0.00000   0.00014   0.00014   0.34864
   D79        2.03271  -0.00000   0.00000  -0.00038  -0.00038   2.03234
   D80        3.11289   0.00001   0.00000  -0.00011  -0.00011   3.11277
   D81        0.86887   0.00001   0.00000  -0.00005  -0.00006   0.86882
   D82        0.99542  -0.00001   0.00000  -0.00024  -0.00024   0.99518
   D83       -0.01028  -0.00001   0.00000  -0.00029  -0.00029  -0.01057
   D84        0.00767  -0.00001   0.00000  -0.00012  -0.00012   0.00754
   D85       -0.99803  -0.00000   0.00000  -0.00018  -0.00018  -0.99821
   D86        1.23535  -0.00002   0.00000   0.00004   0.00004   1.23539
   D87        0.10350  -0.00001   0.00000   0.00034   0.00034   0.10384
   D88        0.85027  -0.00001   0.00000   0.00077   0.00077   0.85104
   D89        0.12589   0.00001   0.00000   0.00070   0.00070   0.12659
   D90       -1.00596   0.00002   0.00000   0.00100   0.00100  -1.00496
   D91       -0.25919   0.00002   0.00000   0.00143   0.00143  -0.25776
   D92       -0.97176   0.00002   0.00000   0.00006   0.00006  -0.97170
   D93       -0.11289  -0.00001   0.00000  -0.00063  -0.00063  -0.11352
   D94        0.75788  -0.00001   0.00000  -0.00099  -0.00099   0.75689
   D95       -0.36066   0.00000   0.00000   0.00007   0.00007  -0.36059
   D96        0.82410  -0.00001   0.00000  -0.00014  -0.00014   0.82396
   D97       -1.49381   0.00000   0.00000  -0.00004  -0.00004  -1.49386
   D98        0.34859   0.00001   0.00000   0.00025   0.00025   0.34885
   D99       -0.77213   0.00001   0.00000   0.00020   0.00020  -0.77193
   D100      -0.42264   0.00001   0.00000   0.00022   0.00022  -0.42242
   D101       0.73669  -0.00000   0.00000  -0.00001  -0.00001   0.73668
   D102       0.36421   0.00000   0.00000   0.00004   0.00004   0.36425
   D103      -0.81634   0.00000   0.00000  -0.00004  -0.00004  -0.81638
   D104       1.49700  -0.00000   0.00000  -0.00002  -0.00002   1.49698
   D105       0.77061  -0.00000   0.00000  -0.00018  -0.00018   0.77043
   D106      -0.34781  -0.00001   0.00000  -0.00025  -0.00025  -0.34806
   D107       0.16761   0.00001   0.00000   0.00012   0.00012   0.16773
   D108       1.80028   0.00001   0.00000   0.00021   0.00021   1.80049
   D109       1.20503   0.00002   0.00000   0.00038   0.00038   1.20541
   D110       0.34327  -0.00001   0.00000  -0.00050  -0.00050   0.34277
   D111      -0.68558   0.00001   0.00000   0.00081   0.00081  -0.68477
   D112      -0.12609  -0.00001   0.00000   0.00043   0.00043  -0.12566
   D113      -1.78853  -0.00002   0.00000   0.00008   0.00008  -1.78845
   D114      -0.74159   0.00000   0.00000  -0.00008  -0.00008  -0.74167
   D115       0.43114  -0.00002   0.00000  -0.00028  -0.00028   0.43085
   D116       0.05093   0.00002   0.00000   0.00072   0.00072   0.05165
   D117       1.22365   0.00000   0.00000   0.00052   0.00052   1.22417
   D118       1.04339   0.00000   0.00000   0.00024   0.00024   1.04363
   D119       2.21611  -0.00001   0.00000   0.00004   0.00004   2.21616
   D120       0.95977  -0.00001   0.00000  -0.00064  -0.00064   0.95913
   D121      -1.40977   0.00000   0.00000  -0.00060  -0.00060  -1.41037
   D122      -0.21589  -0.00001   0.00000  -0.00097  -0.00097  -0.21686
   D123      -1.07320   0.00001   0.00000   0.00045   0.00045  -1.07276
   D124      -0.02783   0.00001   0.00000   0.00023   0.00023  -0.02760
   D125       0.01010   0.00001   0.00000   0.00029   0.00029   0.01039
   D126       1.05548   0.00000   0.00000   0.00007   0.00007   1.05555
   D127      -0.53658   0.00001   0.00000   0.00059   0.00059  -0.53599
   D128       0.50879   0.00001   0.00000   0.00038   0.00038   0.50917
   D129       1.01113   0.00001   0.00000   0.00011   0.00011   1.01124
   D130      -0.05750   0.00002   0.00000   0.00040   0.00040  -0.05710
   D131       0.02892  -0.00001   0.00000  -0.00024  -0.00024   0.02868
   D132      -1.03972   0.00001   0.00000   0.00005   0.00005  -1.03967
         Item               Value     Threshold  Converged?
 Maximum Force            0.000137     0.000015     NO 
 RMS     Force            0.000018     0.000010     NO 
 Maximum Displacement     0.002657     0.000060     NO 
 RMS     Displacement     0.000383     0.000040     NO 
 Predicted change in Energy=-9.873498D-07
 GradGradGradGradGradGradGradGradGradGradGradGradGradGradGradGradGradGrad

                          Input orientation:                          
 ---------------------------------------------------------------------
 Center     Atomic      Atomic             Coordinates (Angstroms)
 Number     Number       Type             X           Y           Z
 ---------------------------------------------------------------------
      1         12           0        0.485742   -0.355610   -1.538241
      2         12           0       -1.695442    1.928750    1.575397
      3         12           0        0.244302   -0.432111    1.704229
      4         12           0        3.810540   -1.560926   -0.172216
      5         12           0       -2.383343   -0.592636   -2.731716
      6         12           0       -2.776535   -0.737911    2.487668
      7         12           0        1.036294    2.177102    0.226473
      8         12           0        1.041640   -2.871756    0.065993
      9         12           0        3.601036    0.872861    1.622782
     10         12           0       -1.793709   -2.013726   -0.105492
     11         12           0        3.609862    1.198094   -1.429216
     12         12           0       -3.741888    0.380442   -0.185524
     13         12           0       -1.438496    2.007427   -1.520140
 ---------------------------------------------------------------------
                    Distance matrix (angstroms):
                    1          2          3          4          5
     1  Mg   0.000000
     2  Mg   4.435156   0.000000
     3  Mg   3.252347   3.058247   0.000000
     4  Mg   3.791186   6.748913   4.184892   0.000000
     5  Mg   3.116443   5.038038   5.158285   6.771471   0.000000
     6  Mg   5.195820   3.018623   3.135721   7.151356   5.236189
     7  Mg   3.135594   3.056740   3.101453   4.672070   5.302476
     8  Mg   3.035388   5.728419   3.044903   3.072755   4.975146
     9  Mg   4.605025   5.400910   3.602394   3.031374   7.544675
    10  Mg   3.161964   4.286976   3.151204   5.622907   3.043718
    11  Mg   3.490846   6.140669   4.878836   3.038504   6.389188
    12  Mg   4.499386   3.112241   4.485657   7.797965   3.045590
    13  Mg   3.047452   3.107179   4.379465   6.488638   3.020096
                    6          7          8          9         10
     6  Mg   0.000000
     7  Mg   5.305466   0.000000
     8  Mg   4.999627   5.051410   0.000000
     9  Mg   6.634457   3.198222   4.795441   0.000000
    10  Mg   3.052561   5.067757   2.967293   6.357876   0.000000
    11  Mg   7.737969   3.212944   5.039354   3.069291   6.423910
    12  Mg   3.054271   5.121402   5.789835   7.578323   3.087693
    13  Mg   5.038825   3.033815   5.698536   6.046659   4.277509
                   11         12         13
    11  Mg   0.000000
    12  Mg   7.500903   0.000000
    13  Mg   5.113629   3.119919   0.000000
 Stoichiometry    Mg13
 Framework group  C1[X(Mg13)]
 Deg. of freedom    33
 Full point group                 C1      NOp   1
 Largest Abelian subgroup         C1      NOp   1
 Largest concise Abelian subgroup C1      NOp   1
                         Standard orientation:                         
 ---------------------------------------------------------------------
 Center     Atomic      Atomic             Coordinates (Angstroms)
 Number     Number       Type             X           Y           Z
 ---------------------------------------------------------------------
      1         12           0        0.485646    0.355013    1.538409
      2         12           0       -1.695387   -1.928106   -1.576245
      3         12           0        0.244432    0.432750   -1.704049
      4         12           0        3.810571    1.560754    0.173070
      5         12           0       -2.383515    0.591667    2.731776
      6         12           0       -2.776343    0.738931   -2.487580
      7         12           0        1.036249   -2.177045   -0.227226
      8         12           0        1.041725    2.871751   -0.064833
      9         12           0        3.601123   -0.872347   -1.622864
     10         12           0       -1.793660    2.013736    0.106131
     11         12           0        3.609730   -1.198736    1.429011
     12         12           0       -3.741912   -0.380408    0.185121
     13         12           0       -1.438657   -2.007962    1.519280
 ---------------------------------------------------------------------
 Rotational constants (GHZ):           0.3553212           0.1968355           0.1927690
 Standard basis: 6-31G(d) (6D, 7F)
 There are   247 symmetry adapted cartesian basis functions of A   symmetry.
 There are   247 symmetry adapted basis functions of A   symmetry.
   247 basis functions,   676 primitive gaussians,   247 cartesian basis functions
    78 alpha electrons       78 beta electrons
       nuclear repulsion energy      1434.0074089294 Hartrees.
 NAtoms=   13 NActive=   13 NUniq=   13 SFac= 1.00D+00 NAtFMM=   60 NAOKFM=F Big=F
 Integral buffers will be    131072 words long.
 Raffenetti 2 integral format.
 Two-electron integral symmetry is turned on.
 One-electron integrals computed using PRISM.
 NBasis=   247 RedAO= T EigKep=  6.61D-04  NBF=   247
 NBsUse=   247 1.00D-06 EigRej= -1.00D+00 NBFU=   247
 Initial guess from the checkpoint file:  "geo-000003-01.chk"
 B after Tr=     0.000000   -0.000000   -0.000000
         Rot=    1.000000   -0.000189    0.000035    0.000014 Ang=  -0.02 deg.
 Keep J ints in memory in canonical form, NReq=476680238.
 Requested convergence on RMS density matrix=1.00D-08 within 128 cycles.
 Requested convergence on MAX density matrix=1.00D-06.
 Requested convergence on             energy=1.00D-06.
 No special actions if energy rises.
 EnCoef did    15 forward-backward iterations
 SCF Done:  E(RB-P86) =  -2601.16043617     A.U. after   11 cycles
            NFock= 11  Conv=0.40D-08     -V/T= 2.0048
 QCSCF skips out because SCF is already converged.
 Calling FoFJK, ICntrl=      2527 FMM=F ISym2X=0 I1Cent= 0 IOpClX= 0 NMat=1 NMatS=1 NMatT=0.
 ***** Axes restored to original set *****
 -------------------------------------------------------------------
 Center     Atomic                   Forces (Hartrees/Bohr)
 Number     Number              X              Y              Z
 -------------------------------------------------------------------
      1       12           0.000093960    0.000001354    0.000075642
      2       12           0.000084256    0.000052009   -0.000011650
      3       12          -0.000018790    0.000037908    0.000046560
      4       12           0.000145278   -0.000036622   -0.000034400
      5       12          -0.000021443   -0.000000606   -0.000026642
      6       12          -0.000029737    0.000004804    0.000054447
      7       12          -0.000098300   -0.000020008   -0.000084434
      8       12          -0.000061184   -0.000049145    0.000012419
      9       12           0.000048563   -0.000025638   -0.000010228
     10       12          -0.000045182   -0.000032695   -0.000082091
     11       12          -0.000090591    0.000042762    0.000073493
     12       12           0.000010433   -0.000060485    0.000020344
     13       12          -0.000017262    0.000086362   -0.000033459
 -------------------------------------------------------------------
 Cartesian Forces:  Max     0.000145278 RMS     0.000055951

 GradGradGradGradGradGradGradGradGradGradGradGradGradGradGradGradGradGrad
 Berny optimization.
 Using GEDIIS/GDIIS optimizer.
 FormGI is forming the generalized inverse of G from B-inverse, IUseBI=4.
 Internal  Forces:  Max     0.000102970 RMS     0.000014673
 Search for a local minimum.
 Step number   2 out of a maximum of  100
 All quantities printed in internal units (Hartrees-Bohrs-Radians)
 Mixed Optimization -- En-DIIS/RFO-DIIS
 Swapping is turned off.
 Update second derivatives using D2CorX and points    1    2
 DE= -1.74D-06 DEPred=-9.87D-07 R= 1.76D+00
 TightC=F SS=  1.41D+00  RLast= 8.25D-03 DXNew= 5.0454D-01 2.4757D-02
 Trust test= 1.76D+00 RLast= 8.25D-03 DXMaxT set to 3.00D-01
 ITU=  1  0
     Eigenvalues ---    0.00553   0.01512   0.01695   0.01926   0.02061
     Eigenvalues ---    0.02304   0.02607   0.02811   0.02820   0.02922
     Eigenvalues ---    0.03055   0.03181   0.03342   0.03407   0.03475
     Eigenvalues ---    0.03710   0.03746   0.03785   0.03875   0.03995
     Eigenvalues ---    0.04189   0.04484   0.04666   0.04783   0.05455
     Eigenvalues ---    0.06197   0.07419   0.07524   0.07872   0.08759
     Eigenvalues ---    0.10121   0.11262   0.13397
 En-DIIS/RFO-DIIS/Sim-DIIS IScMMF=       -3 using points:     2    1
 RFO step:  Lambda=-5.60391228D-06.
 DidBck=F Rises=F RFO-DIIS coefs:    3.00000   -2.00000
 Iteration  1 RMS(Cart)=  0.00136365 RMS(Int)=  0.00000370
 Iteration  2 RMS(Cart)=  0.00000183 RMS(Int)=  0.00000206
 Iteration  3 RMS(Cart)=  0.00000000 RMS(Int)=  0.00000206
 Variable       Old X    -DE/DX   Delta X   Delta X   Delta X     New X
                                 (Linear)    (Quad)   (Total)
    R1        6.14604  -0.00001  -0.00004  -0.00008  -0.00012   6.14592
    R2        5.88922   0.00002   0.00214   0.00144   0.00358   5.89280
    R3        5.92541  -0.00003  -0.00150  -0.00165  -0.00315   5.92227
    R4        5.73605   0.00001   0.00160   0.00062   0.00222   5.73827
    R5        5.97525   0.00000   0.00099   0.00047   0.00147   5.97671
    R6        6.59674  -0.00004   0.00001  -0.00163  -0.00163   6.59512
    R7        5.75885   0.00004   0.00143   0.00165   0.00308   5.76193
    R8        5.77925  -0.00000  -0.00081  -0.00040  -0.00121   5.77804
    R9        5.70437   0.00003   0.00200   0.00126   0.00326   5.70763
   R10        5.77640  -0.00004  -0.00236  -0.00196  -0.00433   5.77207
   R11        5.88128   0.00001   0.00258   0.00157   0.00415   5.88544
   R12        5.87172   0.00000  -0.00005   0.00012   0.00007   5.87178
   R13        5.92565   0.00000   0.00062  -0.00000   0.00062   5.92627
   R14        5.86090  -0.00000   0.00012  -0.00008   0.00004   5.86093
   R15        5.75403   0.00003   0.00251   0.00173   0.00424   5.75827
   R16        5.95491   0.00003   0.00210   0.00156   0.00366   5.95857
   R17        5.80667   0.00010   0.00586   0.00407   0.00993   5.81660
   R18        5.72847   0.00001   0.00018   0.00093   0.00111   5.72957
   R19        5.74194   0.00004   0.00269   0.00141   0.00411   5.74605
   R20        5.75179   0.00001   0.00006   0.00010   0.00016   5.75195
   R21        5.75533  -0.00001   0.00043   0.00064   0.00107   5.75640
   R22        5.70715   0.00002   0.00104   0.00032   0.00136   5.70851
   R23        5.76850   0.00004   0.00240   0.00234   0.00473   5.77324
   R24        5.77174   0.00000  -0.00009  -0.00025  -0.00034   5.77139
   R25        6.04376   0.00006   0.00674   0.00470   0.01144   6.05520
   R26        6.07158  -0.00004  -0.00266  -0.00331  -0.00598   6.06561
   R27        5.73308  -0.00001  -0.00026  -0.00008  -0.00034   5.73274
   R28        5.60737   0.00002   0.00142   0.00064   0.00206   5.60943
   R29        5.80012  -0.00003  -0.00314  -0.00204  -0.00517   5.79495
   R30        5.83489  -0.00001  -0.00090  -0.00093  -0.00183   5.83306
   R31        5.89579   0.00002   0.00160   0.00105   0.00265   5.89845
    A1        1.88774   0.00000  -0.00002   0.00003   0.00001   1.88775
    A2        1.61658  -0.00000  -0.00007  -0.00002  -0.00009   1.61649
    A3        1.53623   0.00000   0.00010   0.00013   0.00023   1.53646
    A4        2.02485  -0.00000  -0.00016  -0.00021  -0.00037   2.02448
    A5        1.88384   0.00000  -0.00028  -0.00016  -0.00044   1.88340
    A6        2.62544  -0.00000  -0.00028  -0.00041  -0.00070   2.62474
    A7        1.91767   0.00001   0.00061   0.00053   0.00114   1.91881
    A8        1.87039   0.00001   0.00031   0.00024   0.00055   1.87094
    A9        1.76047   0.00000   0.00062   0.00062   0.00123   1.76170
   A10        2.42686   0.00001   0.00018   0.00015   0.00034   2.42720
   A11        2.61477   0.00000   0.00038   0.00039   0.00077   2.61554
   A12        1.51951   0.00001  -0.00005  -0.00006  -0.00011   1.51940
   A13        1.79239  -0.00001  -0.00040  -0.00037  -0.00078   1.79162
   A14        1.62768  -0.00001  -0.00031  -0.00032  -0.00063   1.62705
   A15        1.57986   0.00001   0.00048   0.00043   0.00092   1.58078
   A16        2.12375   0.00000   0.00030   0.00010   0.00039   2.12414
   A17        1.93164   0.00001   0.00001   0.00007   0.00008   1.93173
   A18        1.95883  -0.00000   0.00001  -0.00008  -0.00007   1.95876
   A19        1.55772  -0.00000  -0.00009  -0.00008  -0.00017   1.55755
   A20        1.89958   0.00000   0.00023   0.00026   0.00049   1.90007
   A21        2.43710   0.00000   0.00008  -0.00002   0.00006   2.43716
   A22        1.52384   0.00000   0.00028   0.00022   0.00050   1.52433
   A23        2.03431  -0.00000  -0.00004  -0.00009  -0.00013   2.03418
   A24        1.88447   0.00000  -0.00007   0.00004  -0.00003   1.88443
   A25        1.92926  -0.00000  -0.00001  -0.00013  -0.00014   1.92912
   A26        1.88995  -0.00001  -0.00032  -0.00038  -0.00070   1.88926
   A27        1.80731  -0.00003  -0.00076  -0.00113  -0.00188   1.80543
   A28        1.93897  -0.00004  -0.00106  -0.00091  -0.00197   1.93700
   A29        1.63704  -0.00001  -0.00026  -0.00026  -0.00052   1.63653
   A30        1.56600   0.00001   0.00017   0.00022   0.00039   1.56639
   A31        1.56797  -0.00000  -0.00025  -0.00019  -0.00044   1.56753
   A32        1.62093  -0.00001  -0.00008  -0.00006  -0.00014   1.62079
   A33        1.59662   0.00001   0.00044   0.00047   0.00091   1.59753
   A34        1.62795  -0.00001  -0.00065  -0.00064  -0.00129   1.62666
   A35        2.08388   0.00000   0.00048   0.00018   0.00066   2.08454
   A36        2.73503   0.00001   0.00082   0.00067   0.00150   2.73652
   A37        1.21715  -0.00000   0.00019  -0.00013   0.00006   1.21721
   A38        1.76576  -0.00000   0.00043   0.00035   0.00078   1.76654
   A39        1.58975   0.00001   0.00036   0.00042   0.00078   1.59053
   A40        2.65238   0.00000  -0.00007  -0.00008  -0.00015   2.65223
   A41        1.91738   0.00001   0.00058   0.00038   0.00096   1.91833
   A42        1.33917   0.00001  -0.00027  -0.00035  -0.00062   1.33854
   A43        1.50663   0.00001   0.00053   0.00066   0.00119   1.50782
   A44        2.39382   0.00002   0.00003   0.00006   0.00009   2.39391
   A45        1.69543   0.00002   0.00009  -0.00000   0.00009   1.69552
   A46        1.97998  -0.00001  -0.00048  -0.00046  -0.00094   1.97904
   A47        1.60730  -0.00000   0.00019   0.00020   0.00039   1.60769
   A48        1.96760  -0.00000  -0.00006  -0.00006  -0.00013   1.96747
   A49        1.60457  -0.00001  -0.00020  -0.00022  -0.00042   1.60416
   A50        2.06630  -0.00000  -0.00004  -0.00003  -0.00007   2.06622
   A51        1.94978   0.00000   0.00027   0.00016   0.00043   1.95021
   A52        1.95996  -0.00000  -0.00029  -0.00030  -0.00059   1.95937
   A53        2.54741  -0.00000   0.00021   0.00012   0.00033   2.54774
   A54        1.23225   0.00003   0.00042   0.00034   0.00076   1.23301
   A55        1.55212   0.00001   0.00073   0.00049   0.00123   1.55334
   A56        1.68746   0.00003   0.00146   0.00147   0.00293   1.69039
   A57        1.91629   0.00000  -0.00033  -0.00025  -0.00058   1.91571
   A58        1.52699   0.00001   0.00022   0.00031   0.00053   1.52751
   A59        2.06433   0.00001   0.00057   0.00056   0.00114   2.06547
   A60        1.90922   0.00001   0.00012   0.00021   0.00033   1.90954
   A61        1.52039   0.00001   0.00023   0.00026   0.00049   1.52088
   A62        1.60930  -0.00001  -0.00049  -0.00048  -0.00096   1.60834
   A63        1.63519  -0.00001  -0.00034  -0.00037  -0.00071   1.63448
   A64        1.93050  -0.00000   0.00017   0.00018   0.00036   1.93086
   A65        2.13449  -0.00001  -0.00023  -0.00038  -0.00061   2.13388
   A66        1.96615  -0.00001  -0.00028  -0.00043  -0.00071   1.96544
    D1       -0.96978  -0.00000  -0.00040  -0.00024  -0.00064  -0.97042
    D2        0.00729   0.00000  -0.00005  -0.00003  -0.00008   0.00721
    D3        1.79899  -0.00001  -0.00090  -0.00082  -0.00172   1.79727
    D4        2.77606  -0.00000  -0.00055  -0.00061  -0.00116   2.77490
    D5        0.00785  -0.00000  -0.00050  -0.00045  -0.00095   0.00690
    D6        0.98492   0.00000  -0.00016  -0.00024  -0.00040   0.98452
    D7        0.38214  -0.00001  -0.00032  -0.00039  -0.00072   0.38142
    D8       -0.71124  -0.00001  -0.00047  -0.00053  -0.00101  -0.71225
    D9        1.44862   0.00000  -0.00000  -0.00011  -0.00011   1.44851
   D10       -1.93045  -0.00000   0.00053   0.00043   0.00095  -1.92949
   D11        0.72699   0.00001   0.00030   0.00032   0.00061   0.72760
   D12        2.81368   0.00001   0.00078   0.00049   0.00127   2.81494
   D13       -1.41520  -0.00000   0.00029   0.00025   0.00055  -1.41466
   D14        0.67149  -0.00000   0.00077   0.00043   0.00120   0.67269
   D15       -0.35844   0.00000   0.00050   0.00042   0.00092  -0.35752
   D16        1.72825   0.00001   0.00098   0.00059   0.00158   1.72982
   D17        2.91850  -0.00001  -0.00107  -0.00117  -0.00224   2.91626
   D18       -1.14134  -0.00001  -0.00104  -0.00119  -0.00224  -1.14357
   D19       -0.10459  -0.00001  -0.00126  -0.00134  -0.00259  -0.10718
   D20       -2.27303  -0.00001  -0.00165  -0.00175  -0.00340  -2.27642
   D21       -0.00086  -0.00001  -0.00063  -0.00062  -0.00125  -0.00212
   D22        1.00520  -0.00001  -0.00061  -0.00062  -0.00123   1.00397
   D23        0.94999  -0.00000  -0.00119  -0.00119  -0.00238   0.94760
   D24        1.95605  -0.00001  -0.00117  -0.00119  -0.00236   1.95369
   D25       -0.97781  -0.00001  -0.00049  -0.00053  -0.00102  -0.97883
   D26        0.02826  -0.00001  -0.00047  -0.00053  -0.00100   0.02726
   D27        1.11626   0.00002   0.00165   0.00168   0.00333   1.11959
   D28        0.10576   0.00001   0.00177   0.00153   0.00331   0.10907
   D29       -2.80251   0.00001   0.00088   0.00095   0.00183  -2.80068
   D30        2.47018   0.00001   0.00099   0.00080   0.00181   2.47198
   D31        0.10916   0.00001   0.00135   0.00142   0.00277   0.11193
   D32       -0.90134   0.00001   0.00146   0.00128   0.00275  -0.89860
   D33        0.80439   0.00002   0.00229   0.00232   0.00462   0.80900
[...]
 ! D86   D(9,4,8,1)             86.6825         -DE/DX =    0.0                 !
 ! D87   D(9,4,8,3)             31.2731         -DE/DX =    0.0                 !
 ! D88   D(9,4,8,10)            99.0927         -DE/DX =    0.0                 !
 ! D89   D(11,4,8,1)            38.3976         -DE/DX =    0.0                 !
 ! D90   D(11,4,8,3)           -17.0119         -DE/DX =    0.0                 !
 ! D91   D(11,4,8,10)           50.8078         -DE/DX =    0.0                 !
 ! D92   D(8,4,9,7)            -81.372          -DE/DX =    0.0                 !
 ! D93   D(8,4,11,1)           -34.4856         -DE/DX =    0.0                 !
 ! D94   D(8,4,11,7)             3.1852         -DE/DX =    0.0                 !
 ! D95   D(13,5,10,3)          -17.2268         -DE/DX =    0.0                 !
 ! D96   D(13,5,10,6)           50.4721         -DE/DX =    0.0                 !
 ! D97   D(13,5,10,8)          -83.3053         -DE/DX =    0.0                 !
 ! D98   D(1,5,12,2)            19.308          -DE/DX =    0.0                 !
 ! D99   D(1,5,12,6)           -44.6702         -DE/DX =    0.0                 !
 ! D100  D(10,5,13,2)          -27.5433         -DE/DX =    0.0                 !
 ! D101  D(10,5,13,7)           41.1073         -DE/DX =    0.0                 !
 ! D102  D(2,6,10,1)            17.1064         -DE/DX =    0.0                 !
 ! D103  D(2,6,10,5)           -50.005          -DE/DX =    0.0                 !
 ! D104  D(2,6,10,8)            82.8545         -DE/DX =    0.0                 !
 ! D105  D(3,6,12,5)            43.6505         -DE/DX =    0.0                 !
 ! D106  D(3,6,12,13)          -20.3555         -DE/DX =    0.0                 !
 ! D107  D(1,7,9,4)             27.5878         -DE/DX =    0.0                 !
 ! D108  D(2,7,9,4)            112.1612         -DE/DX =    0.0                 !
 ! D109  D(3,7,9,4)             99.2952         -DE/DX =    0.0                 !
 ! D110  D(13,7,9,4)            35.6972         -DE/DX =    0.0                 !
 ! D111  D(2,7,11,4)           -35.6934         -DE/DX =    0.0                 !
 ! D112  D(3,7,11,4)            11.3036         -DE/DX =    0.0                 !
 ! D113  D(13,7,11,4)          -85.0428         -DE/DX =    0.0                 !
 ! D114  D(3,7,13,5)           -45.215          -DE/DX =    0.0                 !
 ! D115  D(3,7,13,12)           21.8917         -DE/DX =    0.0                 !
 ! D116  D(9,7,13,5)             7.0426         -DE/DX =    0.0                 !
 ! D117  D(9,7,13,12)           74.1494         -DE/DX =    0.0                 !
 ! D118  D(11,7,13,5)           62.794          -DE/DX =    0.0                 !
 ! D119  D(11,7,13,12)         129.9007         -DE/DX =    0.0                 !
 ! D120  D(4,8,10,5)            14.7424         -DE/DX =    0.0                 !
 ! D121  D(4,8,10,6)          -119.9774         -DE/DX =    0.0                 !
 ! D122  D(4,8,10,12)          -51.0863         -DE/DX =    0.0                 !
 ! D123  D(1,10,12,2)          -64.6753         -DE/DX =    0.0                 !
 ! D124  D(1,10,12,13)          -5.0135         -DE/DX =    0.0                 !
 ! D125  D(3,10,12,2)            1.6938         -DE/DX =    0.0                 !
 ! D126  D(3,10,12,13)          61.3556         -DE/DX =    0.0                 !
 ! D127  D(8,10,12,2)          -32.812          -DE/DX =    0.0                 !
 ! D128  D(8,10,12,13)          26.8498         -DE/DX =    0.0                 !
 ! D129  D(6,12,13,1)           61.0791         -DE/DX =    0.0                 !
 ! D130  D(6,12,13,7)           -0.9652         -DE/DX =    0.0                 !
 ! D131  D(10,12,13,1)           5.2105         -DE/DX =    0.0                 !
 ! D132  D(10,12,13,7)         -56.8339         -DE/DX =    0.0                 !
 --------------------------------------------------------------------------------
 GradGradGradGradGradGradGradGradGradGradGradGradGradGradGradGradGradGrad


 ----------------------------------------------------------------------

 Electric dipole moment (input orientation):
 (Debye = 10**-18 statcoulomb cm , SI units = C m)
                  (au)            (Debye)         (10**-30 SI)
   Tot        0.108536D+00      0.275870D+00      0.920205D+00
   x          0.741659D-01      0.188511D+00      0.628805D+00
   y         -0.500162D-01     -0.127129D+00     -0.424055D+00
   z         -0.614639D-01     -0.156226D+00     -0.521112D+00

 Dipole polarizability, Alpha (input orientation).
 (esu units = cm**3 , SI units = C**2 m**2 J**-1)
 Alpha(0;0):
               (au)            (10**-24 esu)      (10**-40 SI)
   iso        0.835138D+03      0.123755D+03      0.137696D+03
   aniso      0.375256D+03      0.556071D+02      0.618713D+02
   xx         0.107591D+04      0.159434D+03      0.177394D+03
   yx        -0.272995D+02     -0.404537D+01     -0.450108D+01
   yy         0.704474D+03      0.104392D+03      0.116152D+03
   zx        -0.509547D+02     -0.755070D+01     -0.840129D+01
   zy         0.340253D+01      0.504203D+00      0.561001D+00
   zz         0.725026D+03      0.107438D+03      0.119541D+03

 ----------------------------------------------------------------------

 Dipole orientation:
    12         -1.07226284         -0.92329556          2.56341009
    12          0.17640451         -1.34661017         -5.95197184
    12          2.51691872          2.02947074         -1.83894588
    12          3.10187987          0.20559815          7.51245001
    12         -6.55791633         -0.30383481          0.78846299
    12         -1.00389339          4.22710128         -5.96968213
    12          2.58675607         -3.71939522         -1.12774127
    12          1.43794016          4.13745691          3.40534980
    12          6.33466912         -0.06690950          2.85374297
    12         -2.78255020          3.88583153         -0.41571159
    12          3.63025992         -4.75080805          4.71542371
    12         -5.30928431          0.61051815         -4.71116761
    12         -3.05891956         -3.98512673         -1.82361646

 Electric dipole moment (dipole orientation):
 (Debye = 10**-18 statcoulomb cm , SI units = C m)
                  (au)            (Debye)         (10**-30 SI)
   Tot        0.108536D+00      0.275870D+00      0.920205D+00
   x          0.000000D+00      0.000000D+00      0.000000D+00
   y          0.000000D+00      0.000000D+00      0.000000D+00
   z          0.108536D+00      0.275870D+00      0.920205D+00

 Dipole polarizability, Alpha (dipole orientation).
 (esu units = cm**3 , SI units = C**2 m**2 J**-1)
 Alpha(0;0):
               (au)            (10**-24 esu)      (10**-40 SI)
   iso        0.835138D+03      0.123755D+03      0.137696D+03
   aniso      0.375256D+03      0.556071D+02      0.618713D+02
   xx         0.841409D+03      0.124684D+03      0.138730D+03
   yx        -0.394513D+02     -0.584608D+01     -0.650464D+01
   yy         0.721094D+03      0.106855D+03      0.118892D+03
   zx         0.170278D+03      0.252326D+02      0.280750D+02
   zy        -0.636999D+02     -0.943935D+01     -0.105027D+02
   zz         0.942911D+03      0.139725D+03      0.155465D+03

 ----------------------------------------------------------------------
 1\1\GINC-NIIH189\Freq\RBP86\6-31G(d)\Mg13\USER1\04-Sep-2020\0\\#N Geom
 =AllCheck Guess=TCheck SCRF=Check GenChk RBP86/6-31G(d) Freq\\mg13 - c
 oh - opt geo\\0,1\Mg,0.6269067521,-0.3168440834,-1.3810736649\Mg,-1.94
 34702116,2.0861907682,1.5190521894\Mg,0.0539515877,-0.2121263276,1.956
 1148107\Mg,3.8467558291,-1.5960214188,-1.0794925284\Mg,-2.1183053812,-
 0.7509789401,-2.6817403958\Mg,-2.9812405652,-0.584646527,2.4567599808\
 Mg,0.9486792399,2.2515765793,0.3663257363\Mg,1.3252877051,-2.570044119
 ,0.5084287185\Mg,3.3918647482,0.0086325038,1.4191322364\Mg,-1.59722616
 51,-1.97215483,0.0659929864\Mg,3.558897646,1.4094841478,-1.2588993201\
 Mg,-3.7405016431,0.3047436619,-0.3591649301\Mg,-1.3715975417,1.9421895
 85,-1.5314368191\\Version=ES64L-G16RevA.03\State=1-A\HF=-2601.1609744\
 RMSD=9.630e-09\RMSF=9.272e-07\ZeroPoint=0.0106583\Thermal=0.0353851\Di
 pole=0.0741659,-0.0500162,-0.0614639\DipoleDeriv=0.0598396,0.0089999,-
 0.0102949,-0.0139842,0.0347004,-0.0000273,-0.0479072,-0.0244167,-0.053
 3295,0.0399115,-0.0621266,-0.0719556,0.0025735,0.0457823,0.0161362,-0.
 0801919,0.0515871,0.0077148,-0.0570225,0.0120034,-0.0224125,-0.0096797
 ,-0.0261315,0.0143339,-0.0559116,0.0318619,-0.0132865,-0.0865156,0.015
 8233,0.027172,0.0473712,0.0390734,0.0539058,0.0209982,0.0111584,-0.013
 59,-0.0843161,0.0220283,0.0674048,-0.0105076,-0.0141557,0.0116554,0.05
 06698,0.0211374,0.0010267,-0.0436076,0.0218708,-0.0460432,-0.0010698,0
 .0211086,-0.0316921,-0.0812063,-0.0340257,0.0240577,-0.002866,0.066677
 7,-0.0002998,0.0041305,-0.0622132,0.0173142,0.0228006,0.0147613,-0.067
 0683,0.0789779,-0.1141378,0.0149533,0.038331,-0.0112961,-0.0008207,-0.
 0185944,0.0199387,-0.0059778,0.0591773,-0.0005711,0.021092,-0.0022314,
 -0.0106164,-0.009794,0.0230371,-0.0131639,-0.0010885,0.079036,0.079912
 4,-0.0199379,-0.0110765,-0.084321,0.0007542,0.046957,0.0056675,0.01973
 45,0.021968,0.0269456,-0.0023035,-0.0781069,0.0292708,-0.08166,0.02423
 56,-0.0380798,0.0208964,-0.0552085,-0.0290152,-0.0210071,-0.0116223,0.
 0227061,0.0075688,0.0202653,-0.0063841,0.0655132,-0.009374,-0.0484108,
 0.0636323,0.0458722,0.0160924,0.0023255,0.0748478,-0.0400422,0.0153973
 \Polar=1075.9149829,-27.2995075,704.4738044,-50.9546758,3.402529,725.0
 258001\Quadrupole=-1.3684794,1.0627972,0.3056822,-0.6785282,-0.6274991
 ,-0.5350123\PG=C01 [X(Mg13)]\NImag=0\\0.02554129,-0.00300633,0.0229715
 0,0.00464563,-0.00348306,0.01573203,-0.00001005,0.00113068,-0.00015798
 ,0.01826008,0.00058140,-0.00032937,0.00031597,0.00200617,0.02028145,-0
 .00121138,-0.00032695,-0.00149047,-0.00160719,-0.00157223,0.01715908,0
 .00041421,-0.00012712,0.00131191,-0.00419963,0.00596539,-0.00170564,0.
 02706664,0.00004752,0.00086019,-0.00004497,0.00606954,-0.00579081,0.00
 178691,-0.00173147,0.02496833,-0.00046185,-0.00062400,-0.00356552,-0.0
 0101370,0.00106421,0.00081418,-0.00125670,0.00213372,0.01579822,-0.002
 20261,-0.00002834,-0.00047894,-0.00124450,-0.00069273,0.00026165,-0.00
 010067,-0.00007677,0.00001106,0.01058368,0.00032198,0.00053013,0.00026
 905,-0.00040414,0.00020030,0.00027925,0.00021687,-0.00005905,-0.000127
 01,0.00020123,0.01808901,-0.00047783,0.00069669,0.00007051,0.00043043,
 0.00022551,-0.00004652,0.00010934,-0.00040835,-0.00018611,-0.00458899,
 0.00333983,0.01265995,-0.00966009,-0.00193911,-0.00484505,-0.00080454,
 -0.00029349,0.00127029,-0.00154843,-0.00103365,0.00013046,0.00027235,0
 .00009523,-0.00006126,0.01536727,-0.00103618,0.00025739,-0.00062502,-0
 .00061555,-0.00045357,-0.00078759,0.00021281,-0.00164922,0.00088655,0.
 00016053,0.00058013,0.00024577,0.00115059,0.01564332,-0.00326341,-0.00
 053594,-0.00176240,-0.00059150,0.00096584,-0.00053208,0.00122100,-0.00
 096121,-0.00096465,0.00041022,-0.00037425,-0.00011276,0.00140579,0.003
 75525,0.02218050,-0.00001439,-0.00088254,-0.00079383,-0.00118802,-0.00
 332136,0.00153875,-0.00937733,-0.00155483,0.00294779,-0.00080448,-0.00
 020601,-0.00011745,0.00048321,0.00000748,-0.00101147,0.01533714,-0.000
 54397,-0.00136678,-0.00070942,-0.00438421,-0.01028653,0.00427931,-0.00
 098790,0.00055236,0.00033174,0.00086306,0.00003664,-0.00095872,0.00089
 276,-0.00059070,-0.00061089,0.00202336,0.01493656,-0.00148742,0.000383
 41,-0.00139429,0.00160870,0.00206516,-0.00100014,0.00077131,0.00015107
 ,-0.00035067,-0.00020631,0.00010028,-0.00006558,0.00125566,0.00096135,
 -0.00057625,-0.00310787,-0.00279752,0.01926448,0.00006905,-0.00015723,
 -0.00017592,-0.00823205,-0.00069219,0.00257149,-0.00124592,-0.00284299
 ,0.00115538,0.00027083,0.00002872,-0.00006617,-0.00004494,-0.00008957,
 0.00096373,0.00017971,-0.00001169,-0.00062387,0.02402207,-0.00224369,-
 0.00564094,-0.00389716,0.00079941,-0.00031809,-0.00047339,-0.00347674,
 -0.00708234,0.00396142,0.00021004,-0.00082804,0.00042967,0.00039524,-0
 .00063123,0.00076553,0.00041756,-0.00055409,-0.00022596,0.00174837,0.0
 1804128,-0.00087821,-0.00425581,-0.00266920,0.00395643,0.00039493,-0.0
 0132031,0.00218226,0.00531575,-0.00261055,0.00019501,-0.00029062,-0.00
 075248,-0.00133603,-0.00151643,-0.00016143,0.00070523,0.00116888,0.000
 05723,-0.00021897,0.00126043,0.01619023,0.00050142,0.00232408,-0.00184
 426,0.00096369,-0.00109436,-0.00051459,-0.00246965,0.00466563,0.001901
 07,-0.00635813,-0.00256135,0.00299045,-0.00043650,0.00005821,0.0002295
 2,-0.00054353,-0.00067606,-0.00038353,-0.00023220,0.00009432,-0.000023
 56,0.02176028,0.00431232,-0.00679857,0.00521749,-0.00084903,-0.0001147
 0,0.00085352,0.00493606,-0.00664747,-0.00298481,-0.00172930,-0.0016365
 5,0.00158890,-0.00014012,0.00016255,-0.00028691,-0.00038347,0.00009579
 ,0.00019825,0.00111471,-0.00058197,0.00034599,-0.00459867,0.01833978,-
 0.00282055,0.00629362,-0.00429996,0.00067881,-0.00080731,-0.00056266,0
 .00241258,-0.00475494,-0.00237273,0.00322694,0.00178807,-0.00158625,-0
 .00002377,0.00124513,0.00035174,0.00046925,-0.00037283,0.00036684,0.00
 011177,-0.00025881,0.00000725,-0.00202851,-0.00386264,0.01098424,-0.00
 051867,0.00000156,-0.00070542,-0.00045661,-0.00036645,0.00018971,-0.00
 399907,-0.00021518,0.00054070,-0.00001702,0.00145084,0.00269866,-0.000
 00153,0.00013454,0.00048808,-0.00042134,0.00022465,0.00001524,-0.00091
 531,0.00100859,-0.00060319,-0.00047463,-0.00138607,-0.00065830,0.00726
 595,0.00001407,-0.00075048,0.00002853,-0.00042629,0.00038016,0.0002375
 5,-0.00020863,-0.00007404,0.00004037,0.00032072,-0.00422929,-0.0070602
 9,0.00004299,-0.00058214,0.00000642,0.00048866,0.00073184,-0.00024066,
 0.00037242,-0.00079476,0.00054741,-0.00025036,-0.00120423,-0.00074400,
 -0.00047648,0.00933212,0.00155317,-0.00015406,-0.00126484,0.00022313,-
 0.00025518,0.00047733,0.00106387,0.00019288,0.00047551,0.00048324,-0.0
 0417048,-0.00999615,0.00004866,0.00024099,0.00024090,0.00012021,0.0002
 1189,0.00071208,0.00022984,0.00001345,0.00009004,0.00013753,0.00011456
 ,0.00010663,-0.00340403,0.00101539,0.02057748,-0.00513267,-0.00412336,
 0.00341345,-0.00000022,-0.00026818,-0.00074097,-0.00312917,-0.00400637
 ,-0.00362521,0.00030994,0.00046449,-0.00045312,0.00033546,0.00070671,-
 0.00209869,-0.00175488,0.00230583,0.00394618,-0.00040900,-0.00022960,-
 0.00011532,-0.01385492,0.00134246,-0.00107532,0.00020298,0.00000655,-0
 .00011656,0.02682233,-0.00436776,-0.00188764,0.00203755,0.00001018,-0.
 00096588,0.00023040,-0.00478724,-0.00332799,-0.00402202,0.00047518,-0.
 00024793,0.00032144,0.00052670,-0.00166547,0.00336154,0.00160941,-0.00
 238398,-0.00319458,0.00041850,-0.00020713,-0.00040586,0.00356959,-0.00
 127561,0.00043179,0.00074572,-0.00030580,-0.00001248,-0.00238895,0.017
 84933,0.00403372,0.00233584,-0.00124954,-0.00072898,0.00001139,-0.0009
 4323,-0.00492773,-0.00447535,-0.00440213,-0.00010420,0.00049597,0.0005
 5540,-0.00215342,0.00506791,-0.00941894,0.00306237,-0.00447414,-0.0057
 8743,-0.00017363,-0.00052224,-0.00177403,-0.00153462,0.00025583,0.0001
 3954,0.00017528,-0.00043093,-0.00037106,0.00151470,0.00058729,0.022136
 94,-0.00286579,-0.00122034,-0.00022097,-0.00062829,0.00008803,-0.00010
 433,-0.00017772,-0.00056799,-0.00001404,-0.00029008,0.00185787,-0.0000
 5822,-0.00006608,0.00026631,-0.00022123,-0.00064869,0.00048105,-0.0001
 9314,-0.00534561,0.00089340,0.00300739,0.00010778,-0.00065229,0.000232
 44,0.00064357,0.00010550,-0.00023842,0.00098898,0.00014490,0.00052013,
 0.00905553,-0.00172220,0.00000637,-0.00011704,-0.00008069,0.00039795,-
 0.00022601,-0.00057695,-0.00071100,-0.00012022,0.00038342,-0.01263396,
 0.00198170,0.00022569,0.00018561,0.00025404,0.00052806,-0.00014388,0.0
 0018563,0.00183161,-0.00096541,-0.00109022,-0.00050454,-0.00053704,0.0
 0040948,-0.00057819,-0.00277181,0.00304868,0.00131492,0.00004931,0.000
 24657,-0.00140589,0.01716707,-0.00036172,-0.00050022,0.00006899,-0.000
 40982,0.00046350,-0.00001579,0.00013592,0.00058715,-0.00040941,-0.0000
 7659,-0.00079802,-0.00029719,0.00011022,-0.00091109,0.00007872,0.00004
 265,0.00034620,-0.00007162,0.00236643,-0.00101923,-0.00126708,0.000228
 98,-0.00040829,-0.00098451,0.00115726,0.00630912,-0.00988413,-0.000213
 60,-0.00015871,-0.00059981,-0.00322108,-0.00419311,0.01238951,-0.00030
 832,-0.00006387,0.00027663,-0.00310590,-0.00222885,-0.00231991,0.00009
 601,-0.00013519,-0.00002984,-0.00053880,-0.00076115,-0.00076465,-0.003
 83605,0.00170660,0.00373455,-0.00088472,0.00068228,-0.00204295,0.00039
 533,0.00046292,0.00038902,0.00039156,-0.00105297,0.00077208,-0.0016969
 2,0.00019312,0.00017072,-0.00352333,0.00387105,-0.00037483,-0.00047657
 ,0.00101769,-0.00052452,0.01892501,-0.00001585,-0.00152232,0.00027208,
 -0.00354107,-0.00311956,-0.00349582,-0.00006759,-0.00132894,0.00006240
 ,0.00059663,0.00022919,-0.00046644,0.00267731,-0.00154024,-0.00326571,
 0.00137011,-0.00066396,0.00335733,-0.00004796,0.00001460,-0.00027924,-
 0.00110614,0.00026393,0.00025934,0.00001333,0.00062475,-0.00015350,0.0
 0484901,-0.00497999,0.00086643,0.00039890,0.00040525,0.00010633,-0.000
 53333,0.01417993,0.00041834,0.00023565,0.00051941,-0.00354113,-0.00261
 133,-0.00260338,-0.00134774,0.00012871,-0.00076452,0.00086298,-0.00009
 271,-0.00021871,0.00606889,-0.00349983,-0.00750512,-0.00338365,0.00320
 208,-0.00994096,0.00006044,-0.00026991,-0.00120006,0.00051114,0.000094
 51,-0.00098461,-0.00039428,-0.00010521,-0.00070799,-0.00075507,0.00086
 127,0.00106528,0.00018806,-0.00050817,0.00039571,-0.00200384,0.0001592
 9,0.02270780,-0.00581339,0.00809193,-0.00042523,0.00064602,0.00031663,
 0.00237212,-0.00132926,0.00138175,-0.00028513,0.00011948,-0.00070456,0
 .00035880,-0.00006012,-0.00266249,-0.00126658,-0.00036267,-0.00086917,
 0.00044800,-0.00851195,-0.00007981,-0.00726005,0.00064484,-0.00091362,
 -0.00129743,0.00038860,-0.00018225,-0.00027136,-0.00085547,0.00017273,
 0.00069121,-0.00029703,-0.00043294,0.00076587,-0.00543730,-0.00459334,
 0.00331588,0.02086826,0.00765871,-0.00632949,0.00073600,0.00028499,0.0
 0011865,-0.00078496,0.00063253,0.00028997,-0.00060233,-0.00068366,-0.0
 0003057,0.00006428,-0.00260012,-0.00971644,-0.00307371,-0.00009643,-0.
 00036326,-0.00094376,-0.00167270,-0.00045187,-0.00119520,0.00007965,-0
 .00006590,0.00037312,-0.00055686,-0.00035632,-0.00009216,0.00002649,-0
 .00065122,0.00003542,-0.00038943,-0.00044844,0.00017636,-0.00315830,-0
 .00256264,0.00240565,0.00047514,0.02056753,0.00031151,-0.00006518,0.00
 130527,0.00115281,-0.00026046,-0.00993602,0.00002963,0.00034862,-0.001
 46163,0.00000392,-0.00041935,-0.00002413,-0.00187045,-0.00506300,-0.00
 181823,-0.00047198,0.00038342,-0.00121369,-0.00620051,0.00023621,-0.00
 458961,0.00033039,-0.00112641,-0.00116553,0.00050029,0.00039629,-0.000
 45581,0.00031953,-0.00003761,0.00064901,0.00032341,0.00012866,0.000596
 62,0.00271754,0.00257752,-0.00076285,0.00285390,0.00290131,0.01887658\
 \0.00000106,0.00000087,-0.00000012,-0.00000012,-0.00000121,0.00000143,
 -0.00000012,-0.00000090,-0.00000037,0.00000005,0.00000049,-0.00000019,
 0.00000033,0.00000026,-0.00000081,-0.00000012,-0.00000082,-0.00000116,
 -0.00000112,-0.00000115,0.00000028,0.00000051,0.00000068,-0.00000121,-
 0.00000030,0.00000004,0.00000049,-0.00000055,-0.00000095,-0.00000115,0
 .00000060,0.00000010,0.00000262,-0.00000053,0.00000047,-0.00000132,0.0
 0000031,0.00000212,0.00000151\\\@


 THEREFORE SHALL EVIL COME UPON THEE...
 THOU SHALT NOT KNOW FROM WHENCE IT RISETH...
 AND MISCHIEF SHALL FALL UPON THEE...
 THOU SHALT NOT BE ABLE TO PUT IT OFF...
 AND DESOLATION SHALL COME UPON THEE SUDDENLY...
 WHICH THOU SHALT NOT KNOW...

                                         ISAIAH 47.11
 Job cpu time:       0 days  0 hours 18 minutes  9.1 seconds.
 Elapsed time:       0 days  0 hours  4 minutes 44.0 seconds.
 File lengths (MBytes):  RWF=    127 Int=      0 D2E=      0 Chk=      7 Scr=      1
 Normal termination of Gaussian 16 at Fri Sep  4 13:37:17 2020.
